
     Program PWSCF v.7.2 starts on  7Nov2025 at 17:51:33 

     This program is part of the open-source Quantum ESPRESSO suite
     for quantum simulation of materials; please cite
         "P. Giannozzi et al., J. Phys.:Condens. Matter 21 395502 (2009);
         "P. Giannozzi et al., J. Phys.:Condens. Matter 29 465901 (2017);
         "P. Giannozzi et al., J. Chem. Phys. 152 154105 (2020);
          URL http://www.quantum-espresso.org", 
     in publications or presentations arising from this work. More details at
     http://www.quantum-espresso.org/quote

     Parallel version (MPI & OpenMP), running on      32 processor cores
     Number of MPI processes:                 4
     Threads/MPI process:                     8

     MPI processes distributed on     1 nodes
     502499 MiB available memory on the printing compute node when the environment starts
 
     Reading input from kpoints_60-nbnds_500.in

     Current dimensions of program PWSCF are:
     Max number of different atomic species (ntypx) = 10
     Max number of k-points (npk) =  40000
     Max angular momentum in pseudopotentials (lmaxx) =  4

     Atomic positions and unit cell read from directory:
     ./kpoints_60-nbnds_500.save/
 
Error reading attribute index: expected integer, found *
Error reading attribute index: expected integer, found *
Error reading attribute index: expected integer, found *
Error reading attribute index: expected integer, found *
Error reading attribute index: expected integer, found *
 
     R & G space division:  proc/nbgrp/npool/nimage =       4
     Subspace diagonalization in iterative solution of the eigenvalue problem:
     a serial algorithm will be used

 
     Parallelization info
     --------------------
     sticks:   dense  smooth     PW     G-vecs:    dense   smooth      PW
     Min         364     364    105                29966    29966    4437
     Max         365     365    106                29971    29971    4442
     Sum        1459    1459    421               119877   119877   17753
 
     Using Slab Decomposition
 


     bravais-lattice index     =            4
     lattice parameter (alat)  =       9.3963  a.u.
     unit-cell volume          =    1911.5525 (a.u.)^3
     number of atoms/cell      =            2
     number of atomic types    =            1
     number of electrons       =        28.00
     number of Kohn-Sham states=          500
     kinetic-energy cutoff     =      60.0000  Ry
     charge density cutoff     =     240.0000  Ry
     Exchange-correlation= PBE
                           (   1   4   3   4   0   0   0)
     Non magnetic calculation with spin-orbit


     GPU acceleration is ACTIVE.
     GPU-aware MPI enabled


     GPU used by master process:

        Device Number: 0
        Device name: NVIDIA A100-SXM-64GB
        Compute capability : 80
        Ratio of single to double precision performance  : 2
        Memory Clock Rate (KHz): 1593000
        Memory Bus Width (bits): 4096
        Peak Memory Bandwidth (GB/s): ******

     celldm(1)=   9.396320  celldm(2)=   0.000000  celldm(3)=   2.660616
     celldm(4)=   0.000000  celldm(5)=   0.000000  celldm(6)=   0.000000

     crystal axes: (cart. coord. in units of alat)
               a(1) = (   1.000000   0.000000   0.000000 )  
               a(2) = (  -0.500000   0.866025   0.000000 )  
               a(3) = (   0.000000   0.000000   2.660616 )  

     reciprocal axes: (cart. coord. in units 2 pi/alat)
               b(1) = (  1.000000  0.577350 -0.000000 )  
               b(2) = (  0.000000  1.154701  0.000000 )  
               b(3) = (  0.000000 -0.000000  0.375853 )  


     PseudoPot. # 1 for Pb read from file:
     ../pseudos/Pb_ONCV_PBE_FR-1.0.upf
     MD5 check sum: 5cbd63c91fb21631184a61276f84721a
     Pseudo is Norm-conserving, Zval = 14.0
     Generated using ONCVPSP code by D. R. Hamann
     Using radial grid of  602 points, 14 beta functions with: 
                l(1) =   0
                l(2) =   0
                l(3) =   1
                l(4) =   1
                l(5) =   1
                l(6) =   1
                l(7) =   2
                l(8) =   2
                l(9) =   2
               l(10) =   2
               l(11) =   3
               l(12) =   3
               l(13) =   3
               l(14) =   3

     atomic species   valence    mass     pseudopotential
        Pb            14.00   207.20000     Pb( 1.00)

     12 Sym. Ops., with inversion, found


                                    s                        frac. trans.

      isym =  1     identity                                     

 cryst.   s( 1) = (     1          0          0      )
                  (     0          1          0      )
                  (     0          0          1      )

 cart.    s( 1) = (  1.0000000  0.0000000  0.0000000 )
                  (  0.0000000  1.0000000  0.0000000 )
                  (  0.0000000  0.0000000  1.0000000 )


      isym =  2     180 deg rotation - cart. axis [1,0,0]        

 cryst.   s( 2) = (     1          0          0      )
                  (    -1         -1          0      )
                  (     0          0         -1      )

 cart.    s( 2) = (  1.0000000  0.0000000  0.0000000 )
                  (  0.0000000 -1.0000000  0.0000000 )
                  (  0.0000000  0.0000000 -1.0000000 )


      isym =  3     120 deg rotation - cryst. axis [0,0,1]       

 cryst.   s( 3) = (     0          1          0      )
                  (    -1         -1          0      )
                  (     0          0          1      )

 cart.    s( 3) = ( -0.5000000 -0.8660254  0.0000000 )
                  (  0.8660254 -0.5000000  0.0000000 )
                  (  0.0000000  0.0000000  1.0000000 )


      isym =  4     120 deg rotation - cryst. axis [0,0,-1]      

 cryst.   s( 4) = (    -1         -1          0      )
                  (     1          0          0      )
                  (     0          0          1      )

 cart.    s( 4) = ( -0.5000000  0.8660254  0.0000000 )
                  ( -0.8660254 -0.5000000  0.0000000 )
                  (  0.0000000  0.0000000  1.0000000 )


      isym =  5     180 deg rotation - cryst. axis [0,1,0]       

 cryst.   s( 5) = (    -1         -1          0      )
                  (     0          1          0      )
                  (     0          0         -1      )

 cart.    s( 5) = ( -0.5000000 -0.8660254  0.0000000 )
                  ( -0.8660254  0.5000000  0.0000000 )
                  (  0.0000000  0.0000000 -1.0000000 )


      isym =  6     180 deg rotation - cryst. axis [1,1,0]       

 cryst.   s( 6) = (     0          1          0      )
                  (     1          0          0      )
                  (     0          0         -1      )

 cart.    s( 6) = ( -0.5000000  0.8660254  0.0000000 )
                  (  0.8660254  0.5000000  0.0000000 )
                  (  0.0000000  0.0000000 -1.0000000 )


      isym =  7     inversion                                    

 cryst.   s( 7) = (    -1          0          0      )
                  (     0         -1          0      )
                  (     0          0         -1      )

 cart.    s( 7) = ( -1.0000000  0.0000000  0.0000000 )
                  (  0.0000000 -1.0000000  0.0000000 )
                  (  0.0000000  0.0000000 -1.0000000 )


      isym =  8     inv. 180 deg rotation - cart. axis [1,0,0]   

 cryst.   s( 8) = (    -1          0          0      )
                  (     1          1          0      )
                  (     0          0          1      )

 cart.    s( 8) = ( -1.0000000  0.0000000  0.0000000 )
                  (  0.0000000  1.0000000  0.0000000 )
                  (  0.0000000  0.0000000  1.0000000 )


      isym =  9     inv. 120 deg rotation - cryst. axis [0,0,1]  

 cryst.   s( 9) = (     0         -1          0      )
                  (     1          1          0      )
                  (     0          0         -1      )

 cart.    s( 9) = (  0.5000000  0.8660254  0.0000000 )
                  ( -0.8660254  0.5000000  0.0000000 )
                  (  0.0000000  0.0000000 -1.0000000 )


      isym = 10     inv. 120 deg rotation - cryst. axis [0,0,-1] 

 cryst.   s(10) = (     1          1          0      )
                  (    -1          0          0      )
                  (     0          0         -1      )

 cart.    s(10) = (  0.5000000 -0.8660254  0.0000000 )
                  (  0.8660254  0.5000000  0.0000000 )
                  (  0.0000000  0.0000000 -1.0000000 )


      isym = 11     inv. 180 deg rotation - cryst. axis [0,1,0]  

 cryst.   s(11) = (     1          1          0      )
                  (     0         -1          0      )
                  (     0          0          1      )

 cart.    s(11) = (  0.5000000  0.8660254  0.0000000 )
                  (  0.8660254 -0.5000000  0.0000000 )
                  (  0.0000000  0.0000000  1.0000000 )


      isym = 12     inv. 180 deg rotation - cryst. axis [1,1,0]  

 cryst.   s(12) = (     0         -1          0      )
                  (    -1          0          0      )
                  (     0          0          1      )

 cart.    s(12) = (  0.5000000 -0.8660254  0.0000000 )
                  ( -0.8660254 -0.5000000  0.0000000 )
                  (  0.0000000  0.0000000  1.0000000 )


     double point group D_3d (-3m) 
     there are 12 classes and  6 irreducible representations
     the character table:

       E     -E    2C3   -2C3  3C2'  -3C2' i     -i    2S6   -2S6  3s_v  -3s_v
                                                                              
G_4+   2.00 -2.00  1.00 -1.00  0.00  0.00  2.00 -2.00  1.00 -1.00  0.00  0.00
G_5+   1.00 -1.00 -1.00  1.00  0.00  0.00  1.00 -1.00 -1.00  1.00  0.00  0.00
G_6+   1.00 -1.00 -1.00  1.00  0.00  0.00  1.00 -1.00 -1.00  1.00  0.00  0.00
G_4-   2.00 -2.00  1.00 -1.00  0.00  0.00 -2.00  2.00 -1.00  1.00  0.00  0.00
G_5-   1.00 -1.00 -1.00  1.00  0.00  0.00 -1.00  1.00  1.00 -1.00  0.00  0.00
G_6-   1.00 -1.00 -1.00  1.00  0.00  0.00 -1.00  1.00  1.00 -1.00  0.00  0.00

     imaginary part

       E     -E    2C3   -2C3  3C2'  -3C2' i     -i    2S6   -2S6  3s_v  -3s_v
                                                                              
G_4+   0.00  0.00  0.00  0.00  0.00  0.00  0.00  0.00  0.00  0.00  0.00  0.00
G_5+   0.00  0.00  0.00  0.00  1.00 -1.00  0.00  0.00  0.00  0.00  1.00 -1.00
G_6+   0.00  0.00  0.00  0.00 -1.00  1.00  0.00  0.00  0.00  0.00 -1.00  1.00
G_4-   0.00  0.00  0.00  0.00  0.00  0.00  0.00  0.00  0.00  0.00  0.00  0.00
G_5-   0.00  0.00  0.00  0.00  1.00 -1.00  0.00  0.00  0.00  0.00 -1.00  1.00
G_6-   0.00  0.00  0.00  0.00 -1.00  1.00  0.00  0.00  0.00  0.00  1.00 -1.00

     the symmetry operations in each class and the name of the first element:

     E             1
          identity                                               
     -E           -1
          identity E                                             
     2C3           3    4
          120 deg rotation - cryst. axis [0,0,1]                 
     -2C3         -3   -4
          120 deg rotation - cryst. axis [0,0,1] E               
     3C2'          5    6   -2
          180 deg rotation - cryst. axis [0,1,0]                 
     -3C2'         2   -5   -6
          180 deg rotation - cart. axis [1,0,0]                  
     i             7
          inversion                                              
     -i           -7
          inversion E                                            
     2S6           9   10
          inv. 120 deg rotation - cryst. axis [0,0,1]            
     -2S6         -9  -10
          inv. 120 deg rotation - cryst. axis [0,0,1] E          
     3s_v         11   12   -8
          inv. 180 deg rotation - cryst. axis [0,1,0]            
     -3s_v         8  -11  -12
          inv. 180 deg rotation - cart. axis [1,0,0]             

   Cartesian axes

     site n.     atom                  positions (alat units)
         1           Pb  tau(   1) = (   0.0000000   0.5773503   0.0973800  )
         2           Pb  tau(   2) = (   0.5000000   0.2886751  -0.0973800  )

   Crystallographic axes

     site n.     atom                  positions (cryst. coord.)
         1           Pb  tau(   1) = (  0.3333333  0.6666667  0.0366005  )
         2           Pb  tau(   2) = (  0.6666667  0.3333333 -0.0366005  )

     number of k points=   331
                       cart. coord. in units 2pi/alat
        k(    1) = (   0.0000000   0.0000000   0.0000000), wk =   0.0002778
        k(    2) = (   0.0000000   0.0192450   0.0000000), wk =   0.0016667
        k(    3) = (   0.0000000   0.0384900   0.0000000), wk =   0.0016667
        k(    4) = (   0.0000000   0.0577350   0.0000000), wk =   0.0016667
        k(    5) = (   0.0000000   0.0769800   0.0000000), wk =   0.0016667
        k(    6) = (   0.0000000   0.0962250   0.0000000), wk =   0.0016667
        k(    7) = (   0.0000000   0.1154701   0.0000000), wk =   0.0016667
        k(    8) = (   0.0000000   0.1347151   0.0000000), wk =   0.0016667
        k(    9) = (   0.0000000   0.1539601   0.0000000), wk =   0.0016667
        k(   10) = (   0.0000000   0.1732051   0.0000000), wk =   0.0016667
        k(   11) = (   0.0000000   0.1924501   0.0000000), wk =   0.0016667
        k(   12) = (   0.0000000   0.2116951   0.0000000), wk =   0.0016667
        k(   13) = (   0.0000000   0.2309401   0.0000000), wk =   0.0016667
        k(   14) = (   0.0000000   0.2501851   0.0000000), wk =   0.0016667
        k(   15) = (   0.0000000   0.2694301   0.0000000), wk =   0.0016667
        k(   16) = (   0.0000000   0.2886751   0.0000000), wk =   0.0016667
        k(   17) = (   0.0000000   0.3079201   0.0000000), wk =   0.0016667
        k(   18) = (   0.0000000   0.3271652   0.0000000), wk =   0.0016667
        k(   19) = (   0.0000000   0.3464102   0.0000000), wk =   0.0016667
        k(   20) = (   0.0000000   0.3656552   0.0000000), wk =   0.0016667
        k(   21) = (   0.0000000   0.3849002   0.0000000), wk =   0.0016667
        k(   22) = (   0.0000000   0.4041452   0.0000000), wk =   0.0016667
        k(   23) = (   0.0000000   0.4233902   0.0000000), wk =   0.0016667
        k(   24) = (   0.0000000   0.4426352   0.0000000), wk =   0.0016667
        k(   25) = (   0.0000000   0.4618802   0.0000000), wk =   0.0016667
        k(   26) = (   0.0000000   0.4811252   0.0000000), wk =   0.0016667
        k(   27) = (   0.0000000   0.5003702   0.0000000), wk =   0.0016667
        k(   28) = (   0.0000000   0.5196152   0.0000000), wk =   0.0016667
        k(   29) = (   0.0000000   0.5388603   0.0000000), wk =   0.0016667
        k(   30) = (   0.0000000   0.5581053   0.0000000), wk =   0.0016667
        k(   31) = (   0.0000000  -0.5773503   0.0000000), wk =   0.0008333
        k(   32) = (   0.0166667   0.0288675   0.0000000), wk =   0.0016667
        k(   33) = (   0.0166667   0.0481125   0.0000000), wk =   0.0033333
        k(   34) = (   0.0166667   0.0673575   0.0000000), wk =   0.0033333
        k(   35) = (   0.0166667   0.0866025   0.0000000), wk =   0.0033333
        k(   36) = (   0.0166667   0.1058475   0.0000000), wk =   0.0033333
        k(   37) = (   0.0166667   0.1250926   0.0000000), wk =   0.0033333
        k(   38) = (   0.0166667   0.1443376   0.0000000), wk =   0.0033333
        k(   39) = (   0.0166667   0.1635826   0.0000000), wk =   0.0033333
        k(   40) = (   0.0166667   0.1828276   0.0000000), wk =   0.0033333
        k(   41) = (   0.0166667   0.2020726   0.0000000), wk =   0.0033333
        k(   42) = (   0.0166667   0.2213176   0.0000000), wk =   0.0033333
        k(   43) = (   0.0166667   0.2405626   0.0000000), wk =   0.0033333
        k(   44) = (   0.0166667   0.2598076   0.0000000), wk =   0.0033333
        k(   45) = (   0.0166667   0.2790526   0.0000000), wk =   0.0033333
        k(   46) = (   0.0166667   0.2982976   0.0000000), wk =   0.0033333
        k(   47) = (   0.0166667   0.3175426   0.0000000), wk =   0.0033333
        k(   48) = (   0.0166667   0.3367877   0.0000000), wk =   0.0033333
        k(   49) = (   0.0166667   0.3560327   0.0000000), wk =   0.0033333
        k(   50) = (   0.0166667   0.3752777   0.0000000), wk =   0.0033333
        k(   51) = (   0.0166667   0.3945227   0.0000000), wk =   0.0033333
        k(   52) = (   0.0166667   0.4137677   0.0000000), wk =   0.0033333
        k(   53) = (   0.0166667   0.4330127   0.0000000), wk =   0.0033333
        k(   54) = (   0.0166667   0.4522577   0.0000000), wk =   0.0033333
        k(   55) = (   0.0166667   0.4715027   0.0000000), wk =   0.0033333
        k(   56) = (   0.0166667   0.4907477   0.0000000), wk =   0.0033333
        k(   57) = (   0.0166667   0.5099927   0.0000000), wk =   0.0033333
        k(   58) = (   0.0166667   0.5292377   0.0000000), wk =   0.0033333
        k(   59) = (   0.0166667   0.5484828   0.0000000), wk =   0.0033333
        k(   60) = (   0.0166667   0.5677278   0.0000000), wk =   0.0033333
        k(   61) = (   0.0333333   0.0577350   0.0000000), wk =   0.0016667
        k(   62) = (   0.0333333   0.0769800   0.0000000), wk =   0.0033333
        k(   63) = (   0.0333333   0.0962250   0.0000000), wk =   0.0033333
        k(   64) = (   0.0333333   0.1154701   0.0000000), wk =   0.0033333
        k(   65) = (   0.0333333   0.1347151   0.0000000), wk =   0.0033333
        k(   66) = (   0.0333333   0.1539601   0.0000000), wk =   0.0033333
        k(   67) = (   0.0333333   0.1732051   0.0000000), wk =   0.0033333
        k(   68) = (   0.0333333   0.1924501   0.0000000), wk =   0.0033333
        k(   69) = (   0.0333333   0.2116951   0.0000000), wk =   0.0033333
        k(   70) = (   0.0333333   0.2309401   0.0000000), wk =   0.0033333
        k(   71) = (   0.0333333   0.2501851   0.0000000), wk =   0.0033333
        k(   72) = (   0.0333333   0.2694301   0.0000000), wk =   0.0033333
        k(   73) = (   0.0333333   0.2886751   0.0000000), wk =   0.0033333
        k(   74) = (   0.0333333   0.3079201   0.0000000), wk =   0.0033333
        k(   75) = (   0.0333333   0.3271652   0.0000000), wk =   0.0033333
        k(   76) = (   0.0333333   0.3464102   0.0000000), wk =   0.0033333
        k(   77) = (   0.0333333   0.3656552   0.0000000), wk =   0.0033333
        k(   78) = (   0.0333333   0.3849002   0.0000000), wk =   0.0033333
        k(   79) = (   0.0333333   0.4041452   0.0000000), wk =   0.0033333
        k(   80) = (   0.0333333   0.4233902   0.0000000), wk =   0.0033333
        k(   81) = (   0.0333333   0.4426352   0.0000000), wk =   0.0033333
        k(   82) = (   0.0333333   0.4618802   0.0000000), wk =   0.0033333
        k(   83) = (   0.0333333   0.4811252   0.0000000), wk =   0.0033333
        k(   84) = (   0.0333333   0.5003702   0.0000000), wk =   0.0033333
        k(   85) = (   0.0333333   0.5196152   0.0000000), wk =   0.0033333
        k(   86) = (   0.0333333   0.5388603   0.0000000), wk =   0.0033333
        k(   87) = (   0.0333333   0.5581053   0.0000000), wk =   0.0033333
        k(   88) = (   0.0333333   0.5773503   0.0000000), wk =   0.0016667
        k(   89) = (   0.0500000   0.0866025   0.0000000), wk =   0.0016667
        k(   90) = (   0.0500000   0.1058475   0.0000000), wk =   0.0033333
        k(   91) = (   0.0500000   0.1250926   0.0000000), wk =   0.0033333
        k(   92) = (   0.0500000   0.1443376   0.0000000), wk =   0.0033333
        k(   93) = (   0.0500000   0.1635826   0.0000000), wk =   0.0033333
        k(   94) = (   0.0500000   0.1828276   0.0000000), wk =   0.0033333
        k(   95) = (   0.0500000   0.2020726   0.0000000), wk =   0.0033333
        k(   96) = (   0.0500000   0.2213176   0.0000000), wk =   0.0033333
        k(   97) = (   0.0500000   0.2405626   0.0000000), wk =   0.0033333
        k(   98) = (   0.0500000   0.2598076   0.0000000), wk =   0.0033333
        k(   99) = (   0.0500000   0.2790526   0.0000000), wk =   0.0033333
        k(  100) = (   0.0500000   0.2982976   0.0000000), wk =   0.0033333
        k(  101) = (   0.0500000   0.3175426   0.0000000), wk =   0.0033333
        k(  102) = (   0.0500000   0.3367877   0.0000000), wk =   0.0033333
        k(  103) = (   0.0500000   0.3560327   0.0000000), wk =   0.0033333
        k(  104) = (   0.0500000   0.3752777   0.0000000), wk =   0.0033333
        k(  105) = (   0.0500000   0.3945227   0.0000000), wk =   0.0033333
        k(  106) = (   0.0500000   0.4137677   0.0000000), wk =   0.0033333
        k(  107) = (   0.0500000   0.4330127   0.0000000), wk =   0.0033333
        k(  108) = (   0.0500000   0.4522577   0.0000000), wk =   0.0033333
        k(  109) = (   0.0500000   0.4715027   0.0000000), wk =   0.0033333
        k(  110) = (   0.0500000   0.4907477   0.0000000), wk =   0.0033333
        k(  111) = (   0.0500000   0.5099927   0.0000000), wk =   0.0033333
        k(  112) = (   0.0500000   0.5292377   0.0000000), wk =   0.0033333
        k(  113) = (   0.0500000   0.5484828   0.0000000), wk =   0.0033333
        k(  114) = (   0.0500000   0.5677278   0.0000000), wk =   0.0033333
        k(  115) = (   0.0666667   0.1154701   0.0000000), wk =   0.0016667
        k(  116) = (   0.0666667   0.1347151   0.0000000), wk =   0.0033333
        k(  117) = (   0.0666667   0.1539601   0.0000000), wk =   0.0033333
        k(  118) = (   0.0666667   0.1732051   0.0000000), wk =   0.0033333
        k(  119) = (   0.0666667   0.1924501   0.0000000), wk =   0.0033333
        k(  120) = (   0.0666667   0.2116951   0.0000000), wk =   0.0033333
        k(  121) = (   0.0666667   0.2309401   0.0000000), wk =   0.0033333
        k(  122) = (   0.0666667   0.2501851   0.0000000), wk =   0.0033333
        k(  123) = (   0.0666667   0.2694301   0.0000000), wk =   0.0033333
        k(  124) = (   0.0666667   0.2886751   0.0000000), wk =   0.0033333
        k(  125) = (   0.0666667   0.3079201   0.0000000), wk =   0.0033333
        k(  126) = (   0.0666667   0.3271652   0.0000000), wk =   0.0033333
        k(  127) = (   0.0666667   0.3464102   0.0000000), wk =   0.0033333
        k(  128) = (   0.0666667   0.3656552   0.0000000), wk =   0.0033333
        k(  129) = (   0.0666667   0.3849002   0.0000000), wk =   0.0033333
        k(  130) = (   0.0666667   0.4041452   0.0000000), wk =   0.0033333
        k(  131) = (   0.0666667   0.4233902   0.0000000), wk =   0.0033333
        k(  132) = (   0.0666667   0.4426352   0.0000000), wk =   0.0033333
        k(  133) = (   0.0666667   0.4618802   0.0000000), wk =   0.0033333
        k(  134) = (   0.0666667   0.4811252   0.0000000), wk =   0.0033333
        k(  135) = (   0.0666667   0.5003702   0.0000000), wk =   0.0033333
        k(  136) = (   0.0666667   0.5196152   0.0000000), wk =   0.0033333
        k(  137) = (   0.0666667   0.5388603   0.0000000), wk =   0.0033333
        k(  138) = (   0.0666667   0.5581053   0.0000000), wk =   0.0033333
        k(  139) = (   0.0666667   0.5773503   0.0000000), wk =   0.0016667
        k(  140) = (   0.0833333   0.1443376   0.0000000), wk =   0.0016667
        k(  141) = (   0.0833333   0.1635826   0.0000000), wk =   0.0033333
        k(  142) = (   0.0833333   0.1828276   0.0000000), wk =   0.0033333
        k(  143) = (   0.0833333   0.2020726   0.0000000), wk =   0.0033333
        k(  144) = (   0.0833333   0.2213176   0.0000000), wk =   0.0033333
        k(  145) = (   0.0833333   0.2405626   0.0000000), wk =   0.0033333
        k(  146) = (   0.0833333   0.2598076   0.0000000), wk =   0.0033333
        k(  147) = (   0.0833333   0.2790526   0.0000000), wk =   0.0033333
        k(  148) = (   0.0833333   0.2982976   0.0000000), wk =   0.0033333
        k(  149) = (   0.0833333   0.3175426   0.0000000), wk =   0.0033333
        k(  150) = (   0.0833333   0.3367877   0.0000000), wk =   0.0033333
        k(  151) = (   0.0833333   0.3560327   0.0000000), wk =   0.0033333
        k(  152) = (   0.0833333   0.3752777   0.0000000), wk =   0.0033333
        k(  153) = (   0.0833333   0.3945227   0.0000000), wk =   0.0033333
        k(  154) = (   0.0833333   0.4137677   0.0000000), wk =   0.0033333
        k(  155) = (   0.0833333   0.4330127   0.0000000), wk =   0.0033333
        k(  156) = (   0.0833333   0.4522577   0.0000000), wk =   0.0033333
        k(  157) = (   0.0833333   0.4715027   0.0000000), wk =   0.0033333
        k(  158) = (   0.0833333   0.4907477   0.0000000), wk =   0.0033333
        k(  159) = (   0.0833333   0.5099927   0.0000000), wk =   0.0033333
        k(  160) = (   0.0833333   0.5292377   0.0000000), wk =   0.0033333
        k(  161) = (   0.0833333   0.5484828   0.0000000), wk =   0.0033333
        k(  162) = (   0.0833333   0.5677278   0.0000000), wk =   0.0033333
        k(  163) = (   0.1000000   0.1732051   0.0000000), wk =   0.0016667
        k(  164) = (   0.1000000   0.1924501   0.0000000), wk =   0.0033333
        k(  165) = (   0.1000000   0.2116951   0.0000000), wk =   0.0033333
        k(  166) = (   0.1000000   0.2309401   0.0000000), wk =   0.0033333
        k(  167) = (   0.1000000   0.2501851   0.0000000), wk =   0.0033333
        k(  168) = (   0.1000000   0.2694301   0.0000000), wk =   0.0033333
        k(  169) = (   0.1000000   0.2886751   0.0000000), wk =   0.0033333
        k(  170) = (   0.1000000   0.3079201   0.0000000), wk =   0.0033333
        k(  171) = (   0.1000000   0.3271652   0.0000000), wk =   0.0033333
        k(  172) = (   0.1000000   0.3464102   0.0000000), wk =   0.0033333
        k(  173) = (   0.1000000   0.3656552   0.0000000), wk =   0.0033333
        k(  174) = (   0.1000000   0.3849002   0.0000000), wk =   0.0033333
        k(  175) = (   0.1000000   0.4041452   0.0000000), wk =   0.0033333
        k(  176) = (   0.1000000   0.4233902   0.0000000), wk =   0.0033333
        k(  177) = (   0.1000000   0.4426352   0.0000000), wk =   0.0033333
        k(  178) = (   0.1000000   0.4618802   0.0000000), wk =   0.0033333
        k(  179) = (   0.1000000   0.4811252   0.0000000), wk =   0.0033333
        k(  180) = (   0.1000000   0.5003702   0.0000000), wk =   0.0033333
        k(  181) = (   0.1000000   0.5196152   0.0000000), wk =   0.0033333
        k(  182) = (   0.1000000   0.5388603   0.0000000), wk =   0.0033333
        k(  183) = (   0.1000000   0.5581053   0.0000000), wk =   0.0033333
        k(  184) = (   0.1000000   0.5773503   0.0000000), wk =   0.0016667
        k(  185) = (   0.1166667   0.2020726   0.0000000), wk =   0.0016667
        k(  186) = (   0.1166667   0.2213176   0.0000000), wk =   0.0033333
        k(  187) = (   0.1166667   0.2405626   0.0000000), wk =   0.0033333
        k(  188) = (   0.1166667   0.2598076   0.0000000), wk =   0.0033333
        k(  189) = (   0.1166667   0.2790526   0.0000000), wk =   0.0033333
        k(  190) = (   0.1166667   0.2982976   0.0000000), wk =   0.0033333
        k(  191) = (   0.1166667   0.3175426   0.0000000), wk =   0.0033333
        k(  192) = (   0.1166667   0.3367877   0.0000000), wk =   0.0033333
        k(  193) = (   0.1166667   0.3560327   0.0000000), wk =   0.0033333
        k(  194) = (   0.1166667   0.3752777   0.0000000), wk =   0.0033333
        k(  195) = (   0.1166667   0.3945227   0.0000000), wk =   0.0033333
        k(  196) = (   0.1166667   0.4137677   0.0000000), wk =   0.0033333
        k(  197) = (   0.1166667   0.4330127   0.0000000), wk =   0.0033333
        k(  198) = (   0.1166667   0.4522577   0.0000000), wk =   0.0033333
        k(  199) = (   0.1166667   0.4715027   0.0000000), wk =   0.0033333
        k(  200) = (   0.1166667   0.4907477   0.0000000), wk =   0.0033333
        k(  201) = (   0.1166667   0.5099927   0.0000000), wk =   0.0033333
        k(  202) = (   0.1166667   0.5292377   0.0000000), wk =   0.0033333
        k(  203) = (   0.1166667   0.5484828   0.0000000), wk =   0.0033333
        k(  204) = (   0.1166667   0.5677278   0.0000000), wk =   0.0033333
        k(  205) = (   0.1333333   0.2309401   0.0000000), wk =   0.0016667
        k(  206) = (   0.1333333   0.2501851   0.0000000), wk =   0.0033333
        k(  207) = (   0.1333333   0.2694301   0.0000000), wk =   0.0033333
        k(  208) = (   0.1333333   0.2886751   0.0000000), wk =   0.0033333
        k(  209) = (   0.1333333   0.3079201   0.0000000), wk =   0.0033333
        k(  210) = (   0.1333333   0.3271652   0.0000000), wk =   0.0033333
        k(  211) = (   0.1333333   0.3464102   0.0000000), wk =   0.0033333
        k(  212) = (   0.1333333   0.3656552   0.0000000), wk =   0.0033333
        k(  213) = (   0.1333333   0.3849002   0.0000000), wk =   0.0033333
        k(  214) = (   0.1333333   0.4041452   0.0000000), wk =   0.0033333
        k(  215) = (   0.1333333   0.4233902   0.0000000), wk =   0.0033333
        k(  216) = (   0.1333333   0.4426352   0.0000000), wk =   0.0033333
        k(  217) = (   0.1333333   0.4618802   0.0000000), wk =   0.0033333
        k(  218) = (   0.1333333   0.4811252   0.0000000), wk =   0.0033333
        k(  219) = (   0.1333333   0.5003702   0.0000000), wk =   0.0033333
        k(  220) = (   0.1333333   0.5196152   0.0000000), wk =   0.0033333
        k(  221) = (   0.1333333   0.5388603   0.0000000), wk =   0.0033333
        k(  222) = (   0.1333333   0.5581053   0.0000000), wk =   0.0033333
        k(  223) = (   0.1333333   0.5773503   0.0000000), wk =   0.0016667
        k(  224) = (   0.1500000   0.2598076   0.0000000), wk =   0.0016667
        k(  225) = (   0.1500000   0.2790526   0.0000000), wk =   0.0033333
        k(  226) = (   0.1500000   0.2982976   0.0000000), wk =   0.0033333
        k(  227) = (   0.1500000   0.3175426   0.0000000), wk =   0.0033333
        k(  228) = (   0.1500000   0.3367877   0.0000000), wk =   0.0033333
        k(  229) = (   0.1500000   0.3560327   0.0000000), wk =   0.0033333
        k(  230) = (   0.1500000   0.3752777   0.0000000), wk =   0.0033333
        k(  231) = (   0.1500000   0.3945227   0.0000000), wk =   0.0033333
        k(  232) = (   0.1500000   0.4137677   0.0000000), wk =   0.0033333
        k(  233) = (   0.1500000   0.4330127   0.0000000), wk =   0.0033333
        k(  234) = (   0.1500000   0.4522577   0.0000000), wk =   0.0033333
        k(  235) = (   0.1500000   0.4715027   0.0000000), wk =   0.0033333
        k(  236) = (   0.1500000   0.4907477   0.0000000), wk =   0.0033333
        k(  237) = (   0.1500000   0.5099927   0.0000000), wk =   0.0033333
        k(  238) = (   0.1500000   0.5292377   0.0000000), wk =   0.0033333
        k(  239) = (   0.1500000   0.5484828   0.0000000), wk =   0.0033333
        k(  240) = (   0.1500000   0.5677278   0.0000000), wk =   0.0033333
        k(  241) = (   0.1666667   0.2886751   0.0000000), wk =   0.0016667
        k(  242) = (   0.1666667   0.3079201   0.0000000), wk =   0.0033333
        k(  243) = (   0.1666667   0.3271652   0.0000000), wk =   0.0033333
        k(  244) = (   0.1666667   0.3464102   0.0000000), wk =   0.0033333
        k(  245) = (   0.1666667   0.3656552   0.0000000), wk =   0.0033333
        k(  246) = (   0.1666667   0.3849002   0.0000000), wk =   0.0033333
        k(  247) = (   0.1666667   0.4041452   0.0000000), wk =   0.0033333
        k(  248) = (   0.1666667   0.4233902   0.0000000), wk =   0.0033333
        k(  249) = (   0.1666667   0.4426352   0.0000000), wk =   0.0033333
        k(  250) = (   0.1666667   0.4618802   0.0000000), wk =   0.0033333
        k(  251) = (   0.1666667   0.4811252   0.0000000), wk =   0.0033333
        k(  252) = (   0.1666667   0.5003702   0.0000000), wk =   0.0033333
        k(  253) = (   0.1666667   0.5196152   0.0000000), wk =   0.0033333
        k(  254) = (   0.1666667   0.5388603   0.0000000), wk =   0.0033333
        k(  255) = (   0.1666667   0.5581053   0.0000000), wk =   0.0033333
        k(  256) = (   0.1666667   0.5773503   0.0000000), wk =   0.0016667
        k(  257) = (   0.1833333   0.3175426   0.0000000), wk =   0.0016667
        k(  258) = (   0.1833333   0.3367877   0.0000000), wk =   0.0033333
        k(  259) = (   0.1833333   0.3560327   0.0000000), wk =   0.0033333
        k(  260) = (   0.1833333   0.3752777   0.0000000), wk =   0.0033333
        k(  261) = (   0.1833333   0.3945227   0.0000000), wk =   0.0033333
        k(  262) = (   0.1833333   0.4137677   0.0000000), wk =   0.0033333
        k(  263) = (   0.1833333   0.4330127   0.0000000), wk =   0.0033333
        k(  264) = (   0.1833333   0.4522577   0.0000000), wk =   0.0033333
        k(  265) = (   0.1833333   0.4715027   0.0000000), wk =   0.0033333
        k(  266) = (   0.1833333   0.4907477   0.0000000), wk =   0.0033333
        k(  267) = (   0.1833333   0.5099927   0.0000000), wk =   0.0033333
        k(  268) = (   0.1833333   0.5292377   0.0000000), wk =   0.0033333
        k(  269) = (   0.1833333   0.5484828   0.0000000), wk =   0.0033333
        k(  270) = (   0.1833333   0.5677278   0.0000000), wk =   0.0033333
        k(  271) = (   0.2000000   0.3464102   0.0000000), wk =   0.0016667
        k(  272) = (   0.2000000   0.3656552   0.0000000), wk =   0.0033333
        k(  273) = (   0.2000000   0.3849002   0.0000000), wk =   0.0033333
        k(  274) = (   0.2000000   0.4041452   0.0000000), wk =   0.0033333
        k(  275) = (   0.2000000   0.4233902   0.0000000), wk =   0.0033333
        k(  276) = (   0.2000000   0.4426352   0.0000000), wk =   0.0033333
        k(  277) = (   0.2000000   0.4618802   0.0000000), wk =   0.0033333
        k(  278) = (   0.2000000   0.4811252   0.0000000), wk =   0.0033333
        k(  279) = (   0.2000000   0.5003702   0.0000000), wk =   0.0033333
        k(  280) = (   0.2000000   0.5196152   0.0000000), wk =   0.0033333
        k(  281) = (   0.2000000   0.5388603   0.0000000), wk =   0.0033333
        k(  282) = (   0.2000000   0.5581053   0.0000000), wk =   0.0033333
        k(  283) = (   0.2000000   0.5773503   0.0000000), wk =   0.0016667
        k(  284) = (   0.2166667   0.3752777   0.0000000), wk =   0.0016667
        k(  285) = (   0.2166667   0.3945227   0.0000000), wk =   0.0033333
        k(  286) = (   0.2166667   0.4137677   0.0000000), wk =   0.0033333
        k(  287) = (   0.2166667   0.4330127   0.0000000), wk =   0.0033333
        k(  288) = (   0.2166667   0.4522577   0.0000000), wk =   0.0033333
        k(  289) = (   0.2166667   0.4715027   0.0000000), wk =   0.0033333
        k(  290) = (   0.2166667   0.4907477   0.0000000), wk =   0.0033333
        k(  291) = (   0.2166667   0.5099927   0.0000000), wk =   0.0033333
        k(  292) = (   0.2166667   0.5292377   0.0000000), wk =   0.0033333
        k(  293) = (   0.2166667   0.5484828   0.0000000), wk =   0.0033333
        k(  294) = (   0.2166667   0.5677278   0.0000000), wk =   0.0033333
        k(  295) = (   0.2333333   0.4041452   0.0000000), wk =   0.0016667
        k(  296) = (   0.2333333   0.4233902   0.0000000), wk =   0.0033333
        k(  297) = (   0.2333333   0.4426352   0.0000000), wk =   0.0033333
        k(  298) = (   0.2333333   0.4618802   0.0000000), wk =   0.0033333
        k(  299) = (   0.2333333   0.4811252   0.0000000), wk =   0.0033333
        k(  300) = (   0.2333333   0.5003702   0.0000000), wk =   0.0033333
        k(  301) = (   0.2333333   0.5196152   0.0000000), wk =   0.0033333
        k(  302) = (   0.2333333   0.5388603   0.0000000), wk =   0.0033333
        k(  303) = (   0.2333333   0.5581053   0.0000000), wk =   0.0033333
        k(  304) = (   0.2333333   0.5773503   0.0000000), wk =   0.0016667
        k(  305) = (   0.2500000   0.4330127   0.0000000), wk =   0.0016667
        k(  306) = (   0.2500000   0.4522577   0.0000000), wk =   0.0033333
        k(  307) = (   0.2500000   0.4715027   0.0000000), wk =   0.0033333
        k(  308) = (   0.2500000   0.4907477   0.0000000), wk =   0.0033333
        k(  309) = (   0.2500000   0.5099927   0.0000000), wk =   0.0033333
        k(  310) = (   0.2500000   0.5292377   0.0000000), wk =   0.0033333
        k(  311) = (   0.2500000   0.5484828   0.0000000), wk =   0.0033333
        k(  312) = (   0.2500000   0.5677278   0.0000000), wk =   0.0033333
        k(  313) = (   0.2666667   0.4618802   0.0000000), wk =   0.0016667
        k(  314) = (   0.2666667   0.4811252   0.0000000), wk =   0.0033333
        k(  315) = (   0.2666667   0.5003702   0.0000000), wk =   0.0033333
        k(  316) = (   0.2666667   0.5196152   0.0000000), wk =   0.0033333
        k(  317) = (   0.2666667   0.5388603   0.0000000), wk =   0.0033333
        k(  318) = (   0.2666667   0.5581053   0.0000000), wk =   0.0033333
        k(  319) = (   0.2666667   0.5773503   0.0000000), wk =   0.0016667
        k(  320) = (   0.2833333   0.4907477   0.0000000), wk =   0.0016667
        k(  321) = (   0.2833333   0.5099927   0.0000000), wk =   0.0033333
        k(  322) = (   0.2833333   0.5292377   0.0000000), wk =   0.0033333
        k(  323) = (   0.2833333   0.5484828   0.0000000), wk =   0.0033333
        k(  324) = (   0.2833333   0.5677278   0.0000000), wk =   0.0033333
        k(  325) = (   0.3000000   0.5196152   0.0000000), wk =   0.0016667
        k(  326) = (   0.3000000   0.5388603   0.0000000), wk =   0.0033333
        k(  327) = (   0.3000000   0.5581053   0.0000000), wk =   0.0033333
        k(  328) = (   0.3000000   0.5773503   0.0000000), wk =   0.0016667
        k(  329) = (   0.3166667   0.5484828   0.0000000), wk =   0.0016667
        k(  330) = (   0.3166667   0.5677278   0.0000000), wk =   0.0033333
        k(  331) = (   0.3333333   0.5773503   0.0000000), wk =   0.0005556

                       cryst. coord.
        k(    1) = (   0.0000000   0.0000000   0.0000000), wk =   0.0002778
        k(    2) = (   0.0000000   0.0166667   0.0000000), wk =   0.0016667
        k(    3) = (   0.0000000   0.0333333   0.0000000), wk =   0.0016667
        k(    4) = (   0.0000000   0.0500000   0.0000000), wk =   0.0016667
        k(    5) = (   0.0000000   0.0666667   0.0000000), wk =   0.0016667
        k(    6) = (   0.0000000   0.0833333   0.0000000), wk =   0.0016667
        k(    7) = (   0.0000000   0.1000000   0.0000000), wk =   0.0016667
        k(    8) = (   0.0000000   0.1166667   0.0000000), wk =   0.0016667
        k(    9) = (   0.0000000   0.1333333   0.0000000), wk =   0.0016667
        k(   10) = (   0.0000000   0.1500000   0.0000000), wk =   0.0016667
        k(   11) = (   0.0000000   0.1666667   0.0000000), wk =   0.0016667
        k(   12) = (   0.0000000   0.1833333   0.0000000), wk =   0.0016667
        k(   13) = (   0.0000000   0.2000000   0.0000000), wk =   0.0016667
        k(   14) = (   0.0000000   0.2166667   0.0000000), wk =   0.0016667
        k(   15) = (   0.0000000   0.2333333   0.0000000), wk =   0.0016667
        k(   16) = (   0.0000000   0.2500000   0.0000000), wk =   0.0016667
        k(   17) = (   0.0000000   0.2666667   0.0000000), wk =   0.0016667
        k(   18) = (   0.0000000   0.2833333   0.0000000), wk =   0.0016667
        k(   19) = (   0.0000000   0.3000000   0.0000000), wk =   0.0016667
        k(   20) = (   0.0000000   0.3166667   0.0000000), wk =   0.0016667
        k(   21) = (   0.0000000   0.3333333   0.0000000), wk =   0.0016667
        k(   22) = (   0.0000000   0.3500000   0.0000000), wk =   0.0016667
        k(   23) = (   0.0000000   0.3666667   0.0000000), wk =   0.0016667
        k(   24) = (   0.0000000   0.3833333   0.0000000), wk =   0.0016667
        k(   25) = (   0.0000000   0.4000000   0.0000000), wk =   0.0016667
        k(   26) = (   0.0000000   0.4166667   0.0000000), wk =   0.0016667
        k(   27) = (   0.0000000   0.4333333   0.0000000), wk =   0.0016667
        k(   28) = (   0.0000000   0.4500000   0.0000000), wk =   0.0016667
        k(   29) = (   0.0000000   0.4666667   0.0000000), wk =   0.0016667
        k(   30) = (   0.0000000   0.4833333   0.0000000), wk =   0.0016667
        k(   31) = (   0.0000000  -0.5000000   0.0000000), wk =   0.0008333
        k(   32) = (   0.0166667   0.0166667   0.0000000), wk =   0.0016667
        k(   33) = (   0.0166667   0.0333333   0.0000000), wk =   0.0033333
        k(   34) = (   0.0166667   0.0500000   0.0000000), wk =   0.0033333
        k(   35) = (   0.0166667   0.0666667   0.0000000), wk =   0.0033333
        k(   36) = (   0.0166667   0.0833333   0.0000000), wk =   0.0033333
        k(   37) = (   0.0166667   0.1000000   0.0000000), wk =   0.0033333
        k(   38) = (   0.0166667   0.1166667   0.0000000), wk =   0.0033333
        k(   39) = (   0.0166667   0.1333333   0.0000000), wk =   0.0033333
        k(   40) = (   0.0166667   0.1500000   0.0000000), wk =   0.0033333
        k(   41) = (   0.0166667   0.1666667   0.0000000), wk =   0.0033333
        k(   42) = (   0.0166667   0.1833333   0.0000000), wk =   0.0033333
        k(   43) = (   0.0166667   0.2000000   0.0000000), wk =   0.0033333
        k(   44) = (   0.0166667   0.2166667   0.0000000), wk =   0.0033333
        k(   45) = (   0.0166667   0.2333333   0.0000000), wk =   0.0033333
        k(   46) = (   0.0166667   0.2500000   0.0000000), wk =   0.0033333
        k(   47) = (   0.0166667   0.2666667   0.0000000), wk =   0.0033333
        k(   48) = (   0.0166667   0.2833333   0.0000000), wk =   0.0033333
        k(   49) = (   0.0166667   0.3000000   0.0000000), wk =   0.0033333
        k(   50) = (   0.0166667   0.3166667   0.0000000), wk =   0.0033333
        k(   51) = (   0.0166667   0.3333333   0.0000000), wk =   0.0033333
        k(   52) = (   0.0166667   0.3500000   0.0000000), wk =   0.0033333
        k(   53) = (   0.0166667   0.3666667   0.0000000), wk =   0.0033333
        k(   54) = (   0.0166667   0.3833333   0.0000000), wk =   0.0033333
        k(   55) = (   0.0166667   0.4000000   0.0000000), wk =   0.0033333
        k(   56) = (   0.0166667   0.4166667   0.0000000), wk =   0.0033333
        k(   57) = (   0.0166667   0.4333333   0.0000000), wk =   0.0033333
        k(   58) = (   0.0166667   0.4500000   0.0000000), wk =   0.0033333
        k(   59) = (   0.0166667   0.4666667   0.0000000), wk =   0.0033333
        k(   60) = (   0.0166667   0.4833333   0.0000000), wk =   0.0033333
        k(   61) = (   0.0333333   0.0333333   0.0000000), wk =   0.0016667
        k(   62) = (   0.0333333   0.0500000   0.0000000), wk =   0.0033333
        k(   63) = (   0.0333333   0.0666667   0.0000000), wk =   0.0033333
        k(   64) = (   0.0333333   0.0833333   0.0000000), wk =   0.0033333
        k(   65) = (   0.0333333   0.1000000   0.0000000), wk =   0.0033333
        k(   66) = (   0.0333333   0.1166667   0.0000000), wk =   0.0033333
        k(   67) = (   0.0333333   0.1333333   0.0000000), wk =   0.0033333
        k(   68) = (   0.0333333   0.1500000   0.0000000), wk =   0.0033333
        k(   69) = (   0.0333333   0.1666667   0.0000000), wk =   0.0033333
        k(   70) = (   0.0333333   0.1833333   0.0000000), wk =   0.0033333
        k(   71) = (   0.0333333   0.2000000   0.0000000), wk =   0.0033333
        k(   72) = (   0.0333333   0.2166667   0.0000000), wk =   0.0033333
        k(   73) = (   0.0333333   0.2333333   0.0000000), wk =   0.0033333
        k(   74) = (   0.0333333   0.2500000   0.0000000), wk =   0.0033333
        k(   75) = (   0.0333333   0.2666667   0.0000000), wk =   0.0033333
        k(   76) = (   0.0333333   0.2833333   0.0000000), wk =   0.0033333
        k(   77) = (   0.0333333   0.3000000   0.0000000), wk =   0.0033333
        k(   78) = (   0.0333333   0.3166667   0.0000000), wk =   0.0033333
        k(   79) = (   0.0333333   0.3333333   0.0000000), wk =   0.0033333
        k(   80) = (   0.0333333   0.3500000   0.0000000), wk =   0.0033333
        k(   81) = (   0.0333333   0.3666667   0.0000000), wk =   0.0033333
        k(   82) = (   0.0333333   0.3833333   0.0000000), wk =   0.0033333
        k(   83) = (   0.0333333   0.4000000   0.0000000), wk =   0.0033333
        k(   84) = (   0.0333333   0.4166667   0.0000000), wk =   0.0033333
        k(   85) = (   0.0333333   0.4333333   0.0000000), wk =   0.0033333
        k(   86) = (   0.0333333   0.4500000   0.0000000), wk =   0.0033333
        k(   87) = (   0.0333333   0.4666667   0.0000000), wk =   0.0033333
        k(   88) = (   0.0333333   0.4833333   0.0000000), wk =   0.0016667
        k(   89) = (   0.0500000   0.0500000   0.0000000), wk =   0.0016667
        k(   90) = (   0.0500000   0.0666667   0.0000000), wk =   0.0033333
        k(   91) = (   0.0500000   0.0833333   0.0000000), wk =   0.0033333
        k(   92) = (   0.0500000   0.1000000   0.0000000), wk =   0.0033333
        k(   93) = (   0.0500000   0.1166667   0.0000000), wk =   0.0033333
        k(   94) = (   0.0500000   0.1333333   0.0000000), wk =   0.0033333
        k(   95) = (   0.0500000   0.1500000   0.0000000), wk =   0.0033333
        k(   96) = (   0.0500000   0.1666667   0.0000000), wk =   0.0033333
        k(   97) = (   0.0500000   0.1833333   0.0000000), wk =   0.0033333
        k(   98) = (   0.0500000   0.2000000   0.0000000), wk =   0.0033333
        k(   99) = (   0.0500000   0.2166667   0.0000000), wk =   0.0033333
        k(  100) = (   0.0500000   0.2333333   0.0000000), wk =   0.0033333
        k(  101) = (   0.0500000   0.2500000   0.0000000), wk =   0.0033333
        k(  102) = (   0.0500000   0.2666667   0.0000000), wk =   0.0033333
        k(  103) = (   0.0500000   0.2833333   0.0000000), wk =   0.0033333
        k(  104) = (   0.0500000   0.3000000   0.0000000), wk =   0.0033333
        k(  105) = (   0.0500000   0.3166667   0.0000000), wk =   0.0033333
        k(  106) = (   0.0500000   0.3333333   0.0000000), wk =   0.0033333
        k(  107) = (   0.0500000   0.3500000   0.0000000), wk =   0.0033333
        k(  108) = (   0.0500000   0.3666667   0.0000000), wk =   0.0033333
        k(  109) = (   0.0500000   0.3833333   0.0000000), wk =   0.0033333
        k(  110) = (   0.0500000   0.4000000   0.0000000), wk =   0.0033333
        k(  111) = (   0.0500000   0.4166667   0.0000000), wk =   0.0033333
        k(  112) = (   0.0500000   0.4333333   0.0000000), wk =   0.0033333
        k(  113) = (   0.0500000   0.4500000   0.0000000), wk =   0.0033333
        k(  114) = (   0.0500000   0.4666667   0.0000000), wk =   0.0033333
        k(  115) = (   0.0666667   0.0666667   0.0000000), wk =   0.0016667
        k(  116) = (   0.0666667   0.0833333   0.0000000), wk =   0.0033333
        k(  117) = (   0.0666667   0.1000000   0.0000000), wk =   0.0033333
        k(  118) = (   0.0666667   0.1166667   0.0000000), wk =   0.0033333
        k(  119) = (   0.0666667   0.1333333   0.0000000), wk =   0.0033333
        k(  120) = (   0.0666667   0.1500000   0.0000000), wk =   0.0033333
        k(  121) = (   0.0666667   0.1666667   0.0000000), wk =   0.0033333
        k(  122) = (   0.0666667   0.1833333   0.0000000), wk =   0.0033333
        k(  123) = (   0.0666667   0.2000000   0.0000000), wk =   0.0033333
        k(  124) = (   0.0666667   0.2166667   0.0000000), wk =   0.0033333
        k(  125) = (   0.0666667   0.2333333   0.0000000), wk =   0.0033333
        k(  126) = (   0.0666667   0.2500000   0.0000000), wk =   0.0033333
        k(  127) = (   0.0666667   0.2666667   0.0000000), wk =   0.0033333
        k(  128) = (   0.0666667   0.2833333   0.0000000), wk =   0.0033333
        k(  129) = (   0.0666667   0.3000000   0.0000000), wk =   0.0033333
        k(  130) = (   0.0666667   0.3166667   0.0000000), wk =   0.0033333
        k(  131) = (   0.0666667   0.3333333   0.0000000), wk =   0.0033333
        k(  132) = (   0.0666667   0.3500000   0.0000000), wk =   0.0033333
        k(  133) = (   0.0666667   0.3666667   0.0000000), wk =   0.0033333
        k(  134) = (   0.0666667   0.3833333   0.0000000), wk =   0.0033333
        k(  135) = (   0.0666667   0.4000000   0.0000000), wk =   0.0033333
        k(  136) = (   0.0666667   0.4166667   0.0000000), wk =   0.0033333
        k(  137) = (   0.0666667   0.4333333   0.0000000), wk =   0.0033333
        k(  138) = (   0.0666667   0.4500000   0.0000000), wk =   0.0033333
        k(  139) = (   0.0666667   0.4666667   0.0000000), wk =   0.0016667
        k(  140) = (   0.0833333   0.0833333   0.0000000), wk =   0.0016667
        k(  141) = (   0.0833333   0.1000000   0.0000000), wk =   0.0033333
        k(  142) = (   0.0833333   0.1166667   0.0000000), wk =   0.0033333
        k(  143) = (   0.0833333   0.1333333   0.0000000), wk =   0.0033333
        k(  144) = (   0.0833333   0.1500000   0.0000000), wk =   0.0033333
        k(  145) = (   0.0833333   0.1666667   0.0000000), wk =   0.0033333
        k(  146) = (   0.0833333   0.1833333   0.0000000), wk =   0.0033333
        k(  147) = (   0.0833333   0.2000000   0.0000000), wk =   0.0033333
        k(  148) = (   0.0833333   0.2166667   0.0000000), wk =   0.0033333
        k(  149) = (   0.0833333   0.2333333   0.0000000), wk =   0.0033333
        k(  150) = (   0.0833333   0.2500000   0.0000000), wk =   0.0033333
        k(  151) = (   0.0833333   0.2666667   0.0000000), wk =   0.0033333
        k(  152) = (   0.0833333   0.2833333   0.0000000), wk =   0.0033333
        k(  153) = (   0.0833333   0.3000000   0.0000000), wk =   0.0033333
        k(  154) = (   0.0833333   0.3166667   0.0000000), wk =   0.0033333
        k(  155) = (   0.0833333   0.3333333   0.0000000), wk =   0.0033333
        k(  156) = (   0.0833333   0.3500000   0.0000000), wk =   0.0033333
        k(  157) = (   0.0833333   0.3666667   0.0000000), wk =   0.0033333
        k(  158) = (   0.0833333   0.3833333   0.0000000), wk =   0.0033333
        k(  159) = (   0.0833333   0.4000000   0.0000000), wk =   0.0033333
        k(  160) = (   0.0833333   0.4166667   0.0000000), wk =   0.0033333
        k(  161) = (   0.0833333   0.4333333   0.0000000), wk =   0.0033333
        k(  162) = (   0.0833333   0.4500000   0.0000000), wk =   0.0033333
        k(  163) = (   0.1000000   0.1000000   0.0000000), wk =   0.0016667
        k(  164) = (   0.1000000   0.1166667   0.0000000), wk =   0.0033333
        k(  165) = (   0.1000000   0.1333333   0.0000000), wk =   0.0033333
        k(  166) = (   0.1000000   0.1500000   0.0000000), wk =   0.0033333
        k(  167) = (   0.1000000   0.1666667   0.0000000), wk =   0.0033333
        k(  168) = (   0.1000000   0.1833333   0.0000000), wk =   0.0033333
        k(  169) = (   0.1000000   0.2000000   0.0000000), wk =   0.0033333
        k(  170) = (   0.1000000   0.2166667   0.0000000), wk =   0.0033333
        k(  171) = (   0.1000000   0.2333333   0.0000000), wk =   0.0033333
        k(  172) = (   0.1000000   0.2500000   0.0000000), wk =   0.0033333
        k(  173) = (   0.1000000   0.2666667   0.0000000), wk =   0.0033333
        k(  174) = (   0.1000000   0.2833333   0.0000000), wk =   0.0033333
        k(  175) = (   0.1000000   0.3000000   0.0000000), wk =   0.0033333
        k(  176) = (   0.1000000   0.3166667   0.0000000), wk =   0.0033333
        k(  177) = (   0.1000000   0.3333333   0.0000000), wk =   0.0033333
        k(  178) = (   0.1000000   0.3500000   0.0000000), wk =   0.0033333
        k(  179) = (   0.1000000   0.3666667   0.0000000), wk =   0.0033333
        k(  180) = (   0.1000000   0.3833333   0.0000000), wk =   0.0033333
        k(  181) = (   0.1000000   0.4000000   0.0000000), wk =   0.0033333
        k(  182) = (   0.1000000   0.4166667   0.0000000), wk =   0.0033333
        k(  183) = (   0.1000000   0.4333333   0.0000000), wk =   0.0033333
        k(  184) = (   0.1000000   0.4500000   0.0000000), wk =   0.0016667
        k(  185) = (   0.1166667   0.1166667   0.0000000), wk =   0.0016667
        k(  186) = (   0.1166667   0.1333333   0.0000000), wk =   0.0033333
        k(  187) = (   0.1166667   0.1500000   0.0000000), wk =   0.0033333
        k(  188) = (   0.1166667   0.1666667   0.0000000), wk =   0.0033333
        k(  189) = (   0.1166667   0.1833333   0.0000000), wk =   0.0033333
        k(  190) = (   0.1166667   0.2000000   0.0000000), wk =   0.0033333
        k(  191) = (   0.1166667   0.2166667   0.0000000), wk =   0.0033333
        k(  192) = (   0.1166667   0.2333333   0.0000000), wk =   0.0033333
        k(  193) = (   0.1166667   0.2500000   0.0000000), wk =   0.0033333
        k(  194) = (   0.1166667   0.2666667   0.0000000), wk =   0.0033333
        k(  195) = (   0.1166667   0.2833333   0.0000000), wk =   0.0033333
        k(  196) = (   0.1166667   0.3000000   0.0000000), wk =   0.0033333
        k(  197) = (   0.1166667   0.3166667   0.0000000), wk =   0.0033333
        k(  198) = (   0.1166667   0.3333333   0.0000000), wk =   0.0033333
        k(  199) = (   0.1166667   0.3500000   0.0000000), wk =   0.0033333
        k(  200) = (   0.1166667   0.3666667   0.0000000), wk =   0.0033333
        k(  201) = (   0.1166667   0.3833333   0.0000000), wk =   0.0033333
        k(  202) = (   0.1166667   0.4000000   0.0000000), wk =   0.0033333
        k(  203) = (   0.1166667   0.4166667   0.0000000), wk =   0.0033333
        k(  204) = (   0.1166667   0.4333333   0.0000000), wk =   0.0033333
        k(  205) = (   0.1333333   0.1333333   0.0000000), wk =   0.0016667
        k(  206) = (   0.1333333   0.1500000   0.0000000), wk =   0.0033333
        k(  207) = (   0.1333333   0.1666667   0.0000000), wk =   0.0033333
        k(  208) = (   0.1333333   0.1833333   0.0000000), wk =   0.0033333
        k(  209) = (   0.1333333   0.2000000   0.0000000), wk =   0.0033333
        k(  210) = (   0.1333333   0.2166667   0.0000000), wk =   0.0033333
        k(  211) = (   0.1333333   0.2333333   0.0000000), wk =   0.0033333
        k(  212) = (   0.1333333   0.2500000   0.0000000), wk =   0.0033333
        k(  213) = (   0.1333333   0.2666667   0.0000000), wk =   0.0033333
        k(  214) = (   0.1333333   0.2833333   0.0000000), wk =   0.0033333
        k(  215) = (   0.1333333   0.3000000   0.0000000), wk =   0.0033333
        k(  216) = (   0.1333333   0.3166667   0.0000000), wk =   0.0033333
        k(  217) = (   0.1333333   0.3333333   0.0000000), wk =   0.0033333
        k(  218) = (   0.1333333   0.3500000   0.0000000), wk =   0.0033333
        k(  219) = (   0.1333333   0.3666667   0.0000000), wk =   0.0033333
        k(  220) = (   0.1333333   0.3833333   0.0000000), wk =   0.0033333
        k(  221) = (   0.1333333   0.4000000   0.0000000), wk =   0.0033333
        k(  222) = (   0.1333333   0.4166667   0.0000000), wk =   0.0033333
        k(  223) = (   0.1333333   0.4333333   0.0000000), wk =   0.0016667
        k(  224) = (   0.1500000   0.1500000   0.0000000), wk =   0.0016667
        k(  225) = (   0.1500000   0.1666667   0.0000000), wk =   0.0033333
        k(  226) = (   0.1500000   0.1833333   0.0000000), wk =   0.0033333
        k(  227) = (   0.1500000   0.2000000   0.0000000), wk =   0.0033333
        k(  228) = (   0.1500000   0.2166667   0.0000000), wk =   0.0033333
        k(  229) = (   0.1500000   0.2333333   0.0000000), wk =   0.0033333
        k(  230) = (   0.1500000   0.2500000   0.0000000), wk =   0.0033333
        k(  231) = (   0.1500000   0.2666667   0.0000000), wk =   0.0033333
        k(  232) = (   0.1500000   0.2833333   0.0000000), wk =   0.0033333
        k(  233) = (   0.1500000   0.3000000   0.0000000), wk =   0.0033333
        k(  234) = (   0.1500000   0.3166667   0.0000000), wk =   0.0033333
        k(  235) = (   0.1500000   0.3333333   0.0000000), wk =   0.0033333
        k(  236) = (   0.1500000   0.3500000   0.0000000), wk =   0.0033333
        k(  237) = (   0.1500000   0.3666667   0.0000000), wk =   0.0033333
        k(  238) = (   0.1500000   0.3833333   0.0000000), wk =   0.0033333
        k(  239) = (   0.1500000   0.4000000   0.0000000), wk =   0.0033333
        k(  240) = (   0.1500000   0.4166667   0.0000000), wk =   0.0033333
        k(  241) = (   0.1666667   0.1666667   0.0000000), wk =   0.0016667
        k(  242) = (   0.1666667   0.1833333   0.0000000), wk =   0.0033333
        k(  243) = (   0.1666667   0.2000000   0.0000000), wk =   0.0033333
        k(  244) = (   0.1666667   0.2166667   0.0000000), wk =   0.0033333
        k(  245) = (   0.1666667   0.2333333   0.0000000), wk =   0.0033333
        k(  246) = (   0.1666667   0.2500000   0.0000000), wk =   0.0033333
        k(  247) = (   0.1666667   0.2666667   0.0000000), wk =   0.0033333
        k(  248) = (   0.1666667   0.2833333   0.0000000), wk =   0.0033333
        k(  249) = (   0.1666667   0.3000000   0.0000000), wk =   0.0033333
        k(  250) = (   0.1666667   0.3166667   0.0000000), wk =   0.0033333
        k(  251) = (   0.1666667   0.3333333   0.0000000), wk =   0.0033333
        k(  252) = (   0.1666667   0.3500000   0.0000000), wk =   0.0033333
        k(  253) = (   0.1666667   0.3666667   0.0000000), wk =   0.0033333
        k(  254) = (   0.1666667   0.3833333   0.0000000), wk =   0.0033333
        k(  255) = (   0.1666667   0.4000000   0.0000000), wk =   0.0033333
        k(  256) = (   0.1666667   0.4166667   0.0000000), wk =   0.0016667
        k(  257) = (   0.1833333   0.1833333   0.0000000), wk =   0.0016667
        k(  258) = (   0.1833333   0.2000000   0.0000000), wk =   0.0033333
        k(  259) = (   0.1833333   0.2166667   0.0000000), wk =   0.0033333
        k(  260) = (   0.1833333   0.2333333   0.0000000), wk =   0.0033333
        k(  261) = (   0.1833333   0.2500000   0.0000000), wk =   0.0033333
        k(  262) = (   0.1833333   0.2666667   0.0000000), wk =   0.0033333
        k(  263) = (   0.1833333   0.2833333   0.0000000), wk =   0.0033333
        k(  264) = (   0.1833333   0.3000000   0.0000000), wk =   0.0033333
        k(  265) = (   0.1833333   0.3166667   0.0000000), wk =   0.0033333
        k(  266) = (   0.1833333   0.3333333   0.0000000), wk =   0.0033333
        k(  267) = (   0.1833333   0.3500000   0.0000000), wk =   0.0033333
        k(  268) = (   0.1833333   0.3666667   0.0000000), wk =   0.0033333
        k(  269) = (   0.1833333   0.3833333   0.0000000), wk =   0.0033333
        k(  270) = (   0.1833333   0.4000000   0.0000000), wk =   0.0033333
        k(  271) = (   0.2000000   0.2000000   0.0000000), wk =   0.0016667
        k(  272) = (   0.2000000   0.2166667   0.0000000), wk =   0.0033333
        k(  273) = (   0.2000000   0.2333333   0.0000000), wk =   0.0033333
        k(  274) = (   0.2000000   0.2500000   0.0000000), wk =   0.0033333
        k(  275) = (   0.2000000   0.2666667   0.0000000), wk =   0.0033333
        k(  276) = (   0.2000000   0.2833333   0.0000000), wk =   0.0033333
        k(  277) = (   0.2000000   0.3000000   0.0000000), wk =   0.0033333
        k(  278) = (   0.2000000   0.3166667   0.0000000), wk =   0.0033333
        k(  279) = (   0.2000000   0.3333333   0.0000000), wk =   0.0033333
        k(  280) = (   0.2000000   0.3500000   0.0000000), wk =   0.0033333
        k(  281) = (   0.2000000   0.3666667   0.0000000), wk =   0.0033333
        k(  282) = (   0.2000000   0.3833333   0.0000000), wk =   0.0033333
        k(  283) = (   0.2000000   0.4000000   0.0000000), wk =   0.0016667
        k(  284) = (   0.2166667   0.2166667   0.0000000), wk =   0.0016667
        k(  285) = (   0.2166667   0.2333333   0.0000000), wk =   0.0033333
        k(  286) = (   0.2166667   0.2500000   0.0000000), wk =   0.0033333
        k(  287) = (   0.2166667   0.2666667   0.0000000), wk =   0.0033333
        k(  288) = (   0.2166667   0.2833333   0.0000000), wk =   0.0033333
        k(  289) = (   0.2166667   0.3000000   0.0000000), wk =   0.0033333
        k(  290) = (   0.2166667   0.3166667   0.0000000), wk =   0.0033333
        k(  291) = (   0.2166667   0.3333333   0.0000000), wk =   0.0033333
        k(  292) = (   0.2166667   0.3500000   0.0000000), wk =   0.0033333
        k(  293) = (   0.2166667   0.3666667   0.0000000), wk =   0.0033333
        k(  294) = (   0.2166667   0.3833333   0.0000000), wk =   0.0033333
        k(  295) = (   0.2333333   0.2333333   0.0000000), wk =   0.0016667
        k(  296) = (   0.2333333   0.2500000   0.0000000), wk =   0.0033333
        k(  297) = (   0.2333333   0.2666667   0.0000000), wk =   0.0033333
        k(  298) = (   0.2333333   0.2833333   0.0000000), wk =   0.0033333
        k(  299) = (   0.2333333   0.3000000   0.0000000), wk =   0.0033333
        k(  300) = (   0.2333333   0.3166667   0.0000000), wk =   0.0033333
        k(  301) = (   0.2333333   0.3333333   0.0000000), wk =   0.0033333
        k(  302) = (   0.2333333   0.3500000   0.0000000), wk =   0.0033333
        k(  303) = (   0.2333333   0.3666667   0.0000000), wk =   0.0033333
        k(  304) = (   0.2333333   0.3833333   0.0000000), wk =   0.0016667
        k(  305) = (   0.2500000   0.2500000   0.0000000), wk =   0.0016667
        k(  306) = (   0.2500000   0.2666667   0.0000000), wk =   0.0033333
        k(  307) = (   0.2500000   0.2833333   0.0000000), wk =   0.0033333
        k(  308) = (   0.2500000   0.3000000   0.0000000), wk =   0.0033333
        k(  309) = (   0.2500000   0.3166667   0.0000000), wk =   0.0033333
        k(  310) = (   0.2500000   0.3333333   0.0000000), wk =   0.0033333
        k(  311) = (   0.2500000   0.3500000   0.0000000), wk =   0.0033333
        k(  312) = (   0.2500000   0.3666667   0.0000000), wk =   0.0033333
        k(  313) = (   0.2666667   0.2666667   0.0000000), wk =   0.0016667
        k(  314) = (   0.2666667   0.2833333   0.0000000), wk =   0.0033333
        k(  315) = (   0.2666667   0.3000000   0.0000000), wk =   0.0033333
        k(  316) = (   0.2666667   0.3166667   0.0000000), wk =   0.0033333
        k(  317) = (   0.2666667   0.3333333   0.0000000), wk =   0.0033333
        k(  318) = (   0.2666667   0.3500000   0.0000000), wk =   0.0033333
        k(  319) = (   0.2666667   0.3666667   0.0000000), wk =   0.0016667
        k(  320) = (   0.2833333   0.2833333   0.0000000), wk =   0.0016667
        k(  321) = (   0.2833333   0.3000000   0.0000000), wk =   0.0033333
        k(  322) = (   0.2833333   0.3166667   0.0000000), wk =   0.0033333
        k(  323) = (   0.2833333   0.3333333   0.0000000), wk =   0.0033333
        k(  324) = (   0.2833333   0.3500000   0.0000000), wk =   0.0033333
        k(  325) = (   0.3000000   0.3000000   0.0000000), wk =   0.0016667
        k(  326) = (   0.3000000   0.3166667   0.0000000), wk =   0.0033333
        k(  327) = (   0.3000000   0.3333333   0.0000000), wk =   0.0033333
        k(  328) = (   0.3000000   0.3500000   0.0000000), wk =   0.0016667
        k(  329) = (   0.3166667   0.3166667   0.0000000), wk =   0.0016667
        k(  330) = (   0.3166667   0.3333333   0.0000000), wk =   0.0033333
        k(  331) = (   0.3333333   0.3333333   0.0000000), wk =   0.0005556

     Dense  grid:   119877 G-vectors     FFT dimensions: (  48,  48, 125)

     Dynamical RAM for                 wfc:      57.22 MB

     Dynamical RAM for     wfc (w. buffer):      57.22 MB

     Dynamical RAM for           str. fact:       0.46 MB

     Dynamical RAM for           local pot:       0.00 MB

     Dynamical RAM for          nlocal pot:       7.10 MB

     Dynamical RAM for                qrad:       8.71 MB

     Dynamical RAM for          rho,v,vnew:      12.24 MB

     Dynamical RAM for           G-vectors:       1.94 MB

     Dynamical RAM for          h,s,v(r/c):      45.78 MB

     Dynamical RAM for          <psi|beta>:       1.89 MB

     Dynamical RAM for                 psi:     114.44 MB

     Dynamical RAM for                hpsi:     114.44 MB

     Dynamical RAM for      wfcinit/wfcrot:      91.56 MB

     Estimated static dynamical RAM per process >      93.08 MB

     Estimated max dynamical RAM per process >     369.63 MB

     Estimated total dynamical RAM >       1.44 GB

     The potential is recalculated from file :
     ./kpoints_60-nbnds_500.save/charge-density

     Starting wfcs are random

     Band Structure Calculation
     Davidson diagonalization with overlap

     Computing kpt #:     1  of   331
     total cpu time spent up to now is        6.9 secs

     Computing kpt #:     2  of   331
     total cpu time spent up to now is       13.0 secs

     Computing kpt #:     3  of   331
     total cpu time spent up to now is       19.0 secs

     Computing kpt #:     4  of   331
     total cpu time spent up to now is       25.0 secs

     Computing kpt #:     5  of   331
     total cpu time spent up to now is       31.1 secs

     Computing kpt #:     6  of   331
     total cpu time spent up to now is       37.1 secs

     Computing kpt #:     7  of   331
     total cpu time spent up to now is       43.1 secs

     Computing kpt #:     8  of   331
     total cpu time spent up to now is       49.2 secs

     Computing kpt #:     9  of   331
     total cpu time spent up to now is       55.2 secs

     Computing kpt #:    10  of   331
     total cpu time spent up to now is       61.3 secs

     Computing kpt #:    11  of   331
     total cpu time spent up to now is       67.4 secs

     Computing kpt #:    12  of   331
     total cpu time spent up to now is       73.6 secs

     Computing kpt #:    13  of   331
     total cpu time spent up to now is       79.8 secs

     Computing kpt #:    14  of   331
     total cpu time spent up to now is       86.3 secs

     Computing kpt #:    15  of   331
     total cpu time spent up to now is       92.5 secs

     Computing kpt #:    16  of   331
     total cpu time spent up to now is       98.9 secs

     Computing kpt #:    17  of   331
     total cpu time spent up to now is      105.4 secs

     Computing kpt #:    18  of   331
     total cpu time spent up to now is      111.7 secs

     Computing kpt #:    19  of   331
     total cpu time spent up to now is      118.9 secs

     Computing kpt #:    20  of   331
     total cpu time spent up to now is      125.2 secs

     Computing kpt #:    21  of   331
     total cpu time spent up to now is      131.5 secs

     Computing kpt #:    22  of   331
     total cpu time spent up to now is      137.7 secs

     Computing kpt #:    23  of   331
     total cpu time spent up to now is      144.0 secs

     Computing kpt #:    24  of   331
     total cpu time spent up to now is      150.2 secs

     Computing kpt #:    25  of   331
     total cpu time spent up to now is      156.6 secs

     Computing kpt #:    26  of   331
     total cpu time spent up to now is      162.8 secs

     Computing kpt #:    27  of   331
     total cpu time spent up to now is      169.1 secs

     Computing kpt #:    28  of   331
     total cpu time spent up to now is      175.3 secs

     Computing kpt #:    29  of   331
     total cpu time spent up to now is      181.5 secs

     Computing kpt #:    30  of   331
     total cpu time spent up to now is      187.7 secs

     Computing kpt #:    31  of   331
     total cpu time spent up to now is      193.9 secs

     Computing kpt #:    32  of   331
     total cpu time spent up to now is      199.9 secs

     Computing kpt #:    33  of   331
     total cpu time spent up to now is      205.9 secs

     Computing kpt #:    34  of   331
     total cpu time spent up to now is      211.9 secs

     Computing kpt #:    35  of   331
     total cpu time spent up to now is      218.0 secs

     Computing kpt #:    36  of   331
     total cpu time spent up to now is      224.0 secs

     Computing kpt #:    37  of   331
     total cpu time spent up to now is      230.0 secs

     Computing kpt #:    38  of   331
     total cpu time spent up to now is      236.0 secs

     Computing kpt #:    39  of   331
     total cpu time spent up to now is      242.1 secs

     Computing kpt #:    40  of   331
     total cpu time spent up to now is      248.3 secs

     Computing kpt #:    41  of   331
     total cpu time spent up to now is      254.3 secs

     Computing kpt #:    42  of   331
     total cpu time spent up to now is      260.5 secs

     Computing kpt #:    43  of   331
     total cpu time spent up to now is      266.6 secs

     Computing kpt #:    44  of   331
     total cpu time spent up to now is      272.9 secs

     Computing kpt #:    45  of   331
     total cpu time spent up to now is      279.3 secs

     Computing kpt #:    46  of   331
     total cpu time spent up to now is      286.4 secs

     Computing kpt #:    47  of   331
     total cpu time spent up to now is      293.7 secs

     Computing kpt #:    48  of   331
     total cpu time spent up to now is      300.8 secs

     Computing kpt #:    49  of   331
     total cpu time spent up to now is      308.0 secs

     Computing kpt #:    50  of   331
     total cpu time spent up to now is      314.3 secs

     Computing kpt #:    51  of   331
     total cpu time spent up to now is      320.5 secs

     Computing kpt #:    52  of   331
     total cpu time spent up to now is      326.8 secs

     Computing kpt #:    53  of   331
     total cpu time spent up to now is      333.0 secs

     Computing kpt #:    54  of   331
     total cpu time spent up to now is      339.3 secs

     Computing kpt #:    55  of   331
     total cpu time spent up to now is      345.5 secs

     Computing kpt #:    56  of   331
     total cpu time spent up to now is      351.8 secs

     Computing kpt #:    57  of   331
     total cpu time spent up to now is      358.0 secs

     Computing kpt #:    58  of   331
     total cpu time spent up to now is      364.2 secs

     Computing kpt #:    59  of   331
     total cpu time spent up to now is      370.4 secs

     Computing kpt #:    60  of   331
     total cpu time spent up to now is      376.6 secs

     Computing kpt #:    61  of   331
     total cpu time spent up to now is      382.6 secs

     Computing kpt #:    62  of   331
     total cpu time spent up to now is      388.6 secs

     Computing kpt #:    63  of   331
     total cpu time spent up to now is      394.6 secs

     Computing kpt #:    64  of   331
     total cpu time spent up to now is      399.8 secs

     Computing kpt #:    65  of   331
     total cpu time spent up to now is      406.0 secs

     Computing kpt #:    66  of   331
     total cpu time spent up to now is      413.0 secs

     Computing kpt #:    67  of   331
     total cpu time spent up to now is      419.1 secs

     Computing kpt #:    68  of   331
     total cpu time spent up to now is      425.3 secs

     Computing kpt #:    69  of   331
     total cpu time spent up to now is      431.4 secs

     Computing kpt #:    70  of   331
     total cpu time spent up to now is      437.4 secs

     Computing kpt #:    71  of   331
     total cpu time spent up to now is      443.4 secs

     Computing kpt #:    72  of   331
     total cpu time spent up to now is      449.8 secs

     Computing kpt #:    73  of   331
     total cpu time spent up to now is      456.1 secs

     Computing kpt #:    74  of   331
     total cpu time spent up to now is      462.5 secs

     Computing kpt #:    75  of   331
     total cpu time spent up to now is      468.8 secs

     Computing kpt #:    76  of   331
     total cpu time spent up to now is      476.0 secs

     Computing kpt #:    77  of   331
     total cpu time spent up to now is      482.3 secs

     Computing kpt #:    78  of   331
     total cpu time spent up to now is      488.6 secs

     Computing kpt #:    79  of   331
     total cpu time spent up to now is      494.9 secs

     Computing kpt #:    80  of   331
     total cpu time spent up to now is      501.1 secs

     Computing kpt #:    81  of   331
     total cpu time spent up to now is      507.3 secs

     Computing kpt #:    82  of   331
     total cpu time spent up to now is      513.6 secs

     Computing kpt #:    83  of   331
     total cpu time spent up to now is      519.8 secs

     Computing kpt #:    84  of   331
     total cpu time spent up to now is      526.1 secs

     Computing kpt #:    85  of   331
     total cpu time spent up to now is      532.3 secs

     Computing kpt #:    86  of   331
     total cpu time spent up to now is      538.5 secs

     Computing kpt #:    87  of   331
     total cpu time spent up to now is      544.8 secs

     Computing kpt #:    88  of   331
     total cpu time spent up to now is      551.0 secs

     Computing kpt #:    89  of   331
     total cpu time spent up to now is      557.0 secs

     Computing kpt #:    90  of   331
     total cpu time spent up to now is      563.0 secs

     Computing kpt #:    91  of   331
     total cpu time spent up to now is      569.1 secs

     Computing kpt #:    92  of   331
     total cpu time spent up to now is      575.2 secs

     Computing kpt #:    93  of   331
     total cpu time spent up to now is      581.2 secs

     Computing kpt #:    94  of   331
     total cpu time spent up to now is      587.3 secs

     Computing kpt #:    95  of   331
     total cpu time spent up to now is      593.3 secs

     Computing kpt #:    96  of   331
     total cpu time spent up to now is      599.5 secs

     Computing kpt #:    97  of   331
     total cpu time spent up to now is      605.5 secs

     Computing kpt #:    98  of   331
     total cpu time spent up to now is      611.6 secs

     Computing kpt #:    99  of   331
     total cpu time spent up to now is      617.9 secs

     Computing kpt #:   100  of   331
     total cpu time spent up to now is      624.3 secs

     Computing kpt #:   101  of   331
     total cpu time spent up to now is      630.6 secs

     Computing kpt #:   102  of   331
     total cpu time spent up to now is      637.0 secs

     Computing kpt #:   103  of   331
     total cpu time spent up to now is      643.2 secs

     Computing kpt #:   104  of   331
     total cpu time spent up to now is      649.5 secs

     Computing kpt #:   105  of   331
     total cpu time spent up to now is      655.8 secs

     Computing kpt #:   106  of   331
     total cpu time spent up to now is      662.1 secs

     Computing kpt #:   107  of   331
     total cpu time spent up to now is      668.3 secs

     Computing kpt #:   108  of   331
     total cpu time spent up to now is      674.5 secs

     Computing kpt #:   109  of   331
     total cpu time spent up to now is      680.8 secs

     Computing kpt #:   110  of   331
     total cpu time spent up to now is      687.0 secs

     Computing kpt #:   111  of   331
     total cpu time spent up to now is      693.2 secs

     Computing kpt #:   112  of   331
     total cpu time spent up to now is      699.4 secs

     Computing kpt #:   113  of   331
     total cpu time spent up to now is      705.6 secs

     Computing kpt #:   114  of   331
     total cpu time spent up to now is      711.8 secs

     Computing kpt #:   115  of   331
     total cpu time spent up to now is      717.9 secs

     Computing kpt #:   116  of   331
     total cpu time spent up to now is      723.1 secs

     Computing kpt #:   117  of   331
     total cpu time spent up to now is      729.2 secs

     Computing kpt #:   118  of   331
     total cpu time spent up to now is      735.2 secs

     Computing kpt #:   119  of   331
     total cpu time spent up to now is      741.3 secs

     Computing kpt #:   120  of   331
     total cpu time spent up to now is      747.5 secs

     Computing kpt #:   121  of   331
     total cpu time spent up to now is      753.6 secs

     Computing kpt #:   122  of   331
     total cpu time spent up to now is      759.6 secs

     Computing kpt #:   123  of   331
     total cpu time spent up to now is      766.0 secs

     Computing kpt #:   124  of   331
     total cpu time spent up to now is      772.4 secs

     Computing kpt #:   125  of   331
     total cpu time spent up to now is      778.7 secs

     Computing kpt #:   126  of   331
     total cpu time spent up to now is      785.0 secs

     Computing kpt #:   127  of   331
     total cpu time spent up to now is      791.4 secs

     Computing kpt #:   128  of   331
     total cpu time spent up to now is      797.7 secs

     Computing kpt #:   129  of   331
     total cpu time spent up to now is      804.0 secs

     Computing kpt #:   130  of   331
     total cpu time spent up to now is      810.3 secs

     Computing kpt #:   131  of   331
     total cpu time spent up to now is      816.7 secs

     Computing kpt #:   132  of   331
     total cpu time spent up to now is      823.0 secs

     Computing kpt #:   133  of   331
     total cpu time spent up to now is      829.2 secs

     Computing kpt #:   134  of   331
     total cpu time spent up to now is      835.4 secs

     Computing kpt #:   135  of   331
     total cpu time spent up to now is      841.6 secs

     Computing kpt #:   136  of   331
     total cpu time spent up to now is      847.8 secs

     Computing kpt #:   137  of   331
     total cpu time spent up to now is      854.0 secs

     Computing kpt #:   138  of   331
     total cpu time spent up to now is      860.3 secs

     Computing kpt #:   139  of   331
     total cpu time spent up to now is      866.5 secs

     Computing kpt #:   140  of   331
     total cpu time spent up to now is      872.7 secs

     Computing kpt #:   141  of   331
     total cpu time spent up to now is      878.8 secs

     Computing kpt #:   142  of   331
     total cpu time spent up to now is      884.9 secs

     Computing kpt #:   143  of   331
     total cpu time spent up to now is      891.0 secs

     Computing kpt #:   144  of   331
     total cpu time spent up to now is      897.2 secs

     Computing kpt #:   145  of   331
     total cpu time spent up to now is      903.5 secs

     Computing kpt #:   146  of   331
     total cpu time spent up to now is      910.7 secs

     Computing kpt #:   147  of   331
     total cpu time spent up to now is      917.1 secs

     Computing kpt #:   148  of   331
     total cpu time spent up to now is      923.4 secs

     Computing kpt #:   149  of   331
     total cpu time spent up to now is      929.8 secs

     Computing kpt #:   150  of   331
     total cpu time spent up to now is      936.2 secs

     Computing kpt #:   151  of   331
     total cpu time spent up to now is      942.5 secs

     Computing kpt #:   152  of   331
     total cpu time spent up to now is      949.7 secs

     Computing kpt #:   153  of   331
     total cpu time spent up to now is      956.1 secs

     Computing kpt #:   154  of   331
     total cpu time spent up to now is      962.4 secs

     Computing kpt #:   155  of   331
     total cpu time spent up to now is      968.6 secs

     Computing kpt #:   156  of   331
     total cpu time spent up to now is      974.9 secs

     Computing kpt #:   157  of   331
     total cpu time spent up to now is      981.1 secs

     Computing kpt #:   158  of   331
     total cpu time spent up to now is      987.4 secs

     Computing kpt #:   159  of   331
     total cpu time spent up to now is      993.7 secs

     Computing kpt #:   160  of   331
     total cpu time spent up to now is      999.9 secs

     Computing kpt #:   161  of   331
     total cpu time spent up to now is     1006.1 secs

     Computing kpt #:   162  of   331
     total cpu time spent up to now is     1012.4 secs

     Computing kpt #:   163  of   331
     total cpu time spent up to now is     1018.6 secs

     Computing kpt #:   164  of   331
     total cpu time spent up to now is     1024.8 secs

     Computing kpt #:   165  of   331
     total cpu time spent up to now is     1030.9 secs

     Computing kpt #:   166  of   331
     total cpu time spent up to now is     1036.9 secs

     Computing kpt #:   167  of   331
     total cpu time spent up to now is     1043.2 secs

     Computing kpt #:   168  of   331
     total cpu time spent up to now is     1049.6 secs

     Computing kpt #:   169  of   331
     total cpu time spent up to now is     1056.7 secs

     Computing kpt #:   170  of   331
[...]
    26.7522  26.7522  26.8630  26.8630  26.9923  26.9923  27.1451  27.1451
    27.4778  27.4778  27.5124  27.5124  28.2943  28.2943  28.4694  28.4694
    28.7402  28.7402  28.9869  28.9869  29.8602  29.8602  29.9586  29.9586
    30.0306  30.0306  30.5655  30.5655  30.6499  30.6499  31.0079  31.0079
    31.2092  31.2092  31.4923  31.4923  31.9413  31.9413  32.1980  32.1980
    32.3123  32.3123  32.4019  32.4019  32.5492  32.5492  32.7195  32.7195
    32.7823  32.7823  32.8347  32.8347  33.0346  33.0346  33.1718  33.1718
    33.3527  33.3527  33.3843  33.3843  33.4854  33.4854  33.6517  33.6517
    33.8751  33.8751  33.8966  33.8966  34.0335  34.0335  34.3278  34.3278
    34.4852  34.4852  34.5833  34.5833  34.8218  34.8218  34.9939  34.9939
    35.4310  35.4310  35.6498  35.6498  35.7729  35.7729  36.0074  36.0074
    37.0087  37.0087  37.0622  37.0622  37.1612  37.1612  37.2804  37.2804
    37.4554  37.4554  37.5596  37.5596  37.6902  37.6902  37.8736  37.8736
    38.0185  38.0185  38.0957  38.0957  38.2604  38.2604  38.4641  38.4641
    38.6470  38.6470  38.7161  38.7161  38.8675  38.8675  39.0890  39.0890
    39.1517  39.1517  39.3132  39.3132  39.5822  39.5822  39.6182  39.6182
    39.7237  39.7237  39.8636  39.8636  39.9109  39.9109  39.9767  39.9767
    40.1881  40.1881  40.2289  40.2289  40.4334  40.4334  40.5053  40.5053
    40.5888  40.5888  40.6525  40.6525  40.7057  40.7057  40.8486  40.8486
    40.8838  40.8838  41.0901  41.0901  41.2676  41.2676  41.3740  41.3740
    41.6400  41.6400  41.8153  41.8153  41.9081  41.9081  41.9924  41.9924
    42.2885  42.2885  42.3126  42.3126  42.4293  42.4293  42.5484  42.5484
    42.6792  42.6792  42.9207  42.9207  43.1661  43.1661  43.2214  43.2214
    43.4225  43.4225  43.4838  43.4838  43.5779  43.5779  43.7444  43.7444
    43.8836  43.8836  44.0252  44.0252  44.1790  44.1790  44.2928  44.2928
    44.4817  44.4817  44.5203  44.5203  44.9071  44.9071  45.1620  45.1620
    45.2770  45.2770  45.4245  45.4245  45.4935  45.4935  45.6247  45.6247
    45.6958  45.6958  46.1425  46.1425  46.3276  46.3276  46.4338  46.4338
    46.5699  46.5699  46.6423  46.6423  46.8001  46.8001  47.1313  47.1313
    47.3039  47.3039  47.5004  47.5004  47.6093  47.6093  47.9199  47.9199
    47.9916  47.9916  48.1925  48.1925  48.2542  48.2542  48.3875  48.3875
    48.4239  48.4239  48.7759  48.7759  48.9720  48.9720  49.2226  49.2226
    49.2876  49.2876  49.3982  49.3982  49.5392  49.5392  49.6194  49.6194
    49.7358  49.7358  49.7720  49.7720  49.8818  49.8818  49.9389  49.9389
    49.9780  49.9780  50.1237  50.1237  50.2683  50.2683  50.3931  50.3931
    50.4030  50.4030  50.5174  50.5174

     occupation numbers 
     1.0000   1.0000   1.0000   1.0000   1.0000   1.0000   1.0000   1.0000
     1.0000   1.0000   1.0000   1.0000   1.0000   1.0000   1.0000   1.0000
     1.0000   1.0000   1.0000   1.0000   1.0000   1.0000   1.0000   1.0000
     1.0000   1.0000   1.0000   1.0000   0.0000   0.0000   0.0000   0.0000
     0.0000   0.0000   0.0000   0.0000   0.0000   0.0000   0.0000   0.0000
     0.0000   0.0000   0.0000   0.0000   0.0000   0.0000   0.0000   0.0000
     0.0000   0.0000   0.0000   0.0000   0.0000   0.0000   0.0000   0.0000
     0.0000   0.0000   0.0000   0.0000   0.0000   0.0000   0.0000   0.0000
     0.0000   0.0000   0.0000   0.0000   0.0000   0.0000   0.0000   0.0000
     0.0000   0.0000   0.0000   0.0000   0.0000   0.0000   0.0000   0.0000
     0.0000   0.0000   0.0000   0.0000   0.0000   0.0000   0.0000   0.0000
     0.0000   0.0000   0.0000   0.0000   0.0000   0.0000   0.0000   0.0000
     0.0000   0.0000   0.0000   0.0000   0.0000   0.0000   0.0000   0.0000
     0.0000   0.0000   0.0000   0.0000   0.0000   0.0000   0.0000   0.0000
     0.0000   0.0000   0.0000   0.0000   0.0000   0.0000   0.0000   0.0000
     0.0000   0.0000   0.0000   0.0000   0.0000   0.0000   0.0000   0.0000
     0.0000   0.0000   0.0000   0.0000   0.0000   0.0000   0.0000   0.0000
     0.0000   0.0000   0.0000   0.0000   0.0000   0.0000   0.0000   0.0000
     0.0000   0.0000   0.0000   0.0000   0.0000   0.0000   0.0000   0.0000
     0.0000   0.0000   0.0000   0.0000   0.0000   0.0000   0.0000   0.0000
     0.0000   0.0000   0.0000   0.0000   0.0000   0.0000   0.0000   0.0000
     0.0000   0.0000   0.0000   0.0000   0.0000   0.0000   0.0000   0.0000
     0.0000   0.0000   0.0000   0.0000   0.0000   0.0000   0.0000   0.0000
     0.0000   0.0000   0.0000   0.0000   0.0000   0.0000   0.0000   0.0000
     0.0000   0.0000   0.0000   0.0000   0.0000   0.0000   0.0000   0.0000
     0.0000   0.0000   0.0000   0.0000   0.0000   0.0000   0.0000   0.0000
     0.0000   0.0000   0.0000   0.0000   0.0000   0.0000   0.0000   0.0000
     0.0000   0.0000   0.0000   0.0000   0.0000   0.0000   0.0000   0.0000
     0.0000   0.0000   0.0000   0.0000   0.0000   0.0000   0.0000   0.0000
     0.0000   0.0000   0.0000   0.0000   0.0000   0.0000   0.0000   0.0000
     0.0000   0.0000   0.0000   0.0000   0.0000   0.0000   0.0000   0.0000
     0.0000   0.0000   0.0000   0.0000   0.0000   0.0000   0.0000   0.0000
     0.0000   0.0000   0.0000   0.0000   0.0000   0.0000   0.0000   0.0000
     0.0000   0.0000   0.0000   0.0000   0.0000   0.0000   0.0000   0.0000
     0.0000   0.0000   0.0000   0.0000   0.0000   0.0000   0.0000   0.0000
     0.0000   0.0000   0.0000   0.0000   0.0000   0.0000   0.0000   0.0000
     0.0000   0.0000   0.0000   0.0000   0.0000   0.0000   0.0000   0.0000
     0.0000   0.0000   0.0000   0.0000   0.0000   0.0000   0.0000   0.0000
     0.0000   0.0000   0.0000   0.0000   0.0000   0.0000   0.0000   0.0000
     0.0000   0.0000   0.0000   0.0000   0.0000   0.0000   0.0000   0.0000
     0.0000   0.0000   0.0000   0.0000   0.0000   0.0000   0.0000   0.0000
     0.0000   0.0000   0.0000   0.0000   0.0000   0.0000   0.0000   0.0000
     0.0000   0.0000   0.0000   0.0000   0.0000   0.0000   0.0000   0.0000
     0.0000   0.0000   0.0000   0.0000   0.0000   0.0000   0.0000   0.0000
     0.0000   0.0000   0.0000   0.0000   0.0000   0.0000   0.0000   0.0000
     0.0000   0.0000   0.0000   0.0000   0.0000   0.0000   0.0000   0.0000
     0.0000   0.0000   0.0000   0.0000   0.0000   0.0000   0.0000   0.0000
     0.0000   0.0000   0.0000   0.0000   0.0000   0.0000   0.0000   0.0000
     0.0000   0.0000   0.0000   0.0000   0.0000   0.0000   0.0000   0.0000
     0.0000   0.0000   0.0000   0.0000   0.0000   0.0000   0.0000   0.0000
     0.0000   0.0000   0.0000   0.0000   0.0000   0.0000   0.0000   0.0000
     0.0000   0.0000   0.0000   0.0000   0.0000   0.0000   0.0000   0.0000
     0.0000   0.0000   0.0000   0.0000   0.0000   0.0000   0.0000   0.0000
     0.0000   0.0000   0.0000   0.0000   0.0000   0.0000   0.0000   0.0000
     0.0000   0.0000   0.0000   0.0000   0.0000   0.0000   0.0000   0.0000
     0.0000   0.0000   0.0000   0.0000   0.0000   0.0000   0.0000   0.0000
     0.0000   0.0000   0.0000   0.0000   0.0000   0.0000   0.0000   0.0000
     0.0000   0.0000   0.0000   0.0000   0.0000   0.0000   0.0000   0.0000
     0.0000   0.0000   0.0000   0.0000   0.0000   0.0000   0.0000   0.0000
     0.0000   0.0000   0.0000   0.0000   0.0000   0.0000   0.0000   0.0000
     0.0000   0.0000   0.0000   0.0000   0.0000   0.0000   0.0000   0.0000
     0.0000   0.0000   0.0000   0.0000   0.0000   0.0000   0.0000   0.0000
     0.0000   0.0000   0.0000   0.0000

          k = 0.3333 0.5774 0.0000 ( 14964 PWs)   bands (ev):

   -18.6097 -18.6097 -18.5694 -18.5694 -18.5446 -18.5446 -18.4914 -18.4914
   -16.1376 -16.1376 -16.0592 -16.0592 -16.0491 -16.0491 -15.9067 -15.9067
   -15.9032 -15.9032 -15.7569 -15.7569  -8.4963  -8.4963  -8.4381  -8.4381
    -2.8616  -2.8616  -0.9170  -0.9170  -0.4297  -0.4297   3.0899   3.0899
     3.1480   3.1480   3.7527   3.7527   4.8973   4.8973   5.0775   5.0775
     5.1370   5.1370   6.0508   6.0508   6.2217   6.2217   6.3279   6.3279
     6.7977   6.7977   6.8084   6.8084   6.8306   6.8306   7.3545   7.3545
     9.0908   9.0908   9.5377   9.5377   9.7445   9.7445  10.3868  10.3868
    10.4919  10.4919  10.6152  10.6152  10.6170  10.6170  11.0641  11.0641
    11.2408  11.2408  11.7212  11.7212  12.6306  12.6306  12.8658  12.8658
    13.0902  13.0902  13.1307  13.1307  13.1346  13.1346  14.5495  14.5495
    14.5859  14.5859  14.6626  14.6626  14.6921  14.6921  14.7016  14.7016
    14.8590  14.8590  14.9449  14.9449  14.9633  14.9633  15.6786  15.6786
    15.7089  15.7089  15.8760  15.8760  16.4641  16.4641  16.4843  16.4843
    16.5117  16.5117  16.9605  16.9605  17.0160  17.0160  17.0180  17.0180
    17.8567  17.8567  18.0562  18.0562  18.3661  18.3661  18.4162  18.4162
    18.6675  18.6675  18.6742  18.6742  18.8167  18.8167  19.1609  19.1609
    19.1933  19.1933  19.4371  19.4371  20.7953  20.7953  20.8018  20.8018
    20.9828  20.9828  21.3737  21.3737  21.3917  21.3917  21.4073  21.4073
    22.3985  22.3985  22.4161  22.4161  22.4557  22.4557  22.5618  22.5618
    22.5700  22.5700  22.6008  22.6008  22.7807  22.7807  22.8331  22.8331
    22.8895  22.8895  22.9413  22.9413  22.9879  22.9879  23.0558  23.0558
    23.2688  23.2688  23.2762  23.2762  23.5437  23.5437  23.7011  23.7011
    23.7039  23.7039  24.0038  24.0038  24.5913  24.5913  24.6083  24.6083
    24.7170  24.7170  24.8210  24.8210  24.8361  24.8361  25.1110  25.1110
    25.6725  25.6725  25.8082  25.8082  26.0202  26.0202  26.0612  26.0612
    26.1218  26.1218  26.5239  26.5239  26.5496  26.5496  26.7017  26.7017
    26.7235  26.7235  26.8984  26.8984  26.9400  26.9400  27.0183  27.0183
    27.4293  27.4293  27.4475  27.4475  28.3131  28.3131  28.5141  28.5141
    28.6911  28.6911  28.9755  28.9755  29.8662  29.8662  29.9574  29.9574
    30.0238  30.0238  30.6068  30.6068  30.6250  30.6250  31.0820  31.0820
    31.1691  31.1691  31.5097  31.5097  31.9913  31.9913  32.2977  32.2977
    32.3253  32.3253  32.4036  32.4036  32.5275  32.5275  32.7219  32.7219
    32.7449  32.7449  32.7634  32.7634  33.1617  33.1617  33.1990  33.1990
    33.2936  33.2936  33.2956  33.2956  33.5005  33.5005  33.6137  33.6137
    33.8777  33.8777  33.8892  33.8892  33.9817  33.9817  34.2969  34.2969
    34.4688  34.4688  34.7922  34.7922  34.7997  34.7997  34.8282  34.8282
    35.4368  35.4368  35.7211  35.7211  35.7467  35.7467  35.9586  35.9586
    37.0804  37.0804  37.0992  37.0992  37.2789  37.2789  37.3274  37.3274
    37.4961  37.4961  37.5125  37.5125  37.7327  37.7327  37.8010  37.8010
    38.0792  38.0792  38.1010  38.1010  38.1454  38.1454  38.5940  38.5940
    38.6088  38.6088  38.8599  38.8599  38.8803  38.8803  38.8853  38.8853
    39.3858  39.3858  39.3875  39.3875  39.4335  39.4335  39.5484  39.5484
    39.6837  39.6837  39.8167  39.8167  39.8331  39.8331  40.0553  40.0553
    40.2700  40.2700  40.2965  40.2965  40.4417  40.4417  40.4685  40.4685
    40.5726  40.5726  40.5845  40.5845  40.6950  40.6950  40.6980  40.6980
    41.0519  41.0519  41.0536  41.0536  41.0939  41.0939  41.4854  41.4854
    41.4877  41.4877  41.8917  41.8917  41.9261  41.9261  41.9577  41.9577
    42.3074  42.3074  42.3331  42.3331  42.3821  42.3821  42.6074  42.6074
    42.6277  42.6277  43.0752  43.0752  43.2641  43.2641  43.3714  43.3714
    43.3783  43.3783  43.4426  43.4426  43.5021  43.5021  43.6216  43.6216
    43.8238  43.8238  43.8311  43.8311  44.1738  44.1738  44.3138  44.3138
    44.4890  44.4890  44.4944  44.4944  45.1413  45.1413  45.1726  45.1726
    45.2024  45.2024  45.4200  45.4200  45.5239  45.5239  45.5326  45.5326
    45.6104  45.6104  46.2788  46.2788  46.2891  46.2891  46.5378  46.5378
    46.6169  46.6169  46.6896  46.6896  46.6975  46.6975  47.2075  47.2075
    47.2135  47.2135  47.3631  47.3631  47.7754  47.7754  47.8650  47.8650
    47.9411  47.9411  48.0677  48.0677  48.3306  48.3306  48.3518  48.3518
    48.6238  48.6238  48.6691  48.6691  49.0969  49.0969  49.1840  49.1840
    49.4449  49.4449  49.4911  49.4911  49.5436  49.5436  49.6575  49.6575
    49.6607  49.6607  49.8187  49.8187  49.8320  49.8320  49.8794  49.8794
    50.0589  50.0589  50.0630  50.0630  50.2355  50.2355  50.4331  50.4331
    50.4607  50.4607  50.4767  50.4767

     occupation numbers 
     1.0000   1.0000   1.0000   1.0000   1.0000   1.0000   1.0000   1.0000
     1.0000   1.0000   1.0000   1.0000   1.0000   1.0000   1.0000   1.0000
     1.0000   1.0000   1.0000   1.0000   1.0000   1.0000   1.0000   1.0000
     1.0000   1.0000   1.0000   1.0000   0.0000   0.0000   0.0000   0.0000
     0.0000   0.0000   0.0000   0.0000   0.0000   0.0000   0.0000   0.0000
     0.0000   0.0000   0.0000   0.0000   0.0000   0.0000   0.0000   0.0000
     0.0000   0.0000   0.0000   0.0000   0.0000   0.0000   0.0000   0.0000
     0.0000   0.0000   0.0000   0.0000   0.0000   0.0000   0.0000   0.0000
     0.0000   0.0000   0.0000   0.0000   0.0000   0.0000   0.0000   0.0000
     0.0000   0.0000   0.0000   0.0000   0.0000   0.0000   0.0000   0.0000
     0.0000   0.0000   0.0000   0.0000   0.0000   0.0000   0.0000   0.0000
     0.0000   0.0000   0.0000   0.0000   0.0000   0.0000   0.0000   0.0000
     0.0000   0.0000   0.0000   0.0000   0.0000   0.0000   0.0000   0.0000
     0.0000   0.0000   0.0000   0.0000   0.0000   0.0000   0.0000   0.0000
     0.0000   0.0000   0.0000   0.0000   0.0000   0.0000   0.0000   0.0000
     0.0000   0.0000   0.0000   0.0000   0.0000   0.0000   0.0000   0.0000
     0.0000   0.0000   0.0000   0.0000   0.0000   0.0000   0.0000   0.0000
     0.0000   0.0000   0.0000   0.0000   0.0000   0.0000   0.0000   0.0000
     0.0000   0.0000   0.0000   0.0000   0.0000   0.0000   0.0000   0.0000
     0.0000   0.0000   0.0000   0.0000   0.0000   0.0000   0.0000   0.0000
     0.0000   0.0000   0.0000   0.0000   0.0000   0.0000   0.0000   0.0000
     0.0000   0.0000   0.0000   0.0000   0.0000   0.0000   0.0000   0.0000
     0.0000   0.0000   0.0000   0.0000   0.0000   0.0000   0.0000   0.0000
     0.0000   0.0000   0.0000   0.0000   0.0000   0.0000   0.0000   0.0000
     0.0000   0.0000   0.0000   0.0000   0.0000   0.0000   0.0000   0.0000
     0.0000   0.0000   0.0000   0.0000   0.0000   0.0000   0.0000   0.0000
     0.0000   0.0000   0.0000   0.0000   0.0000   0.0000   0.0000   0.0000
     0.0000   0.0000   0.0000   0.0000   0.0000   0.0000   0.0000   0.0000
     0.0000   0.0000   0.0000   0.0000   0.0000   0.0000   0.0000   0.0000
     0.0000   0.0000   0.0000   0.0000   0.0000   0.0000   0.0000   0.0000
     0.0000   0.0000   0.0000   0.0000   0.0000   0.0000   0.0000   0.0000
     0.0000   0.0000   0.0000   0.0000   0.0000   0.0000   0.0000   0.0000
     0.0000   0.0000   0.0000   0.0000   0.0000   0.0000   0.0000   0.0000
     0.0000   0.0000   0.0000   0.0000   0.0000   0.0000   0.0000   0.0000
     0.0000   0.0000   0.0000   0.0000   0.0000   0.0000   0.0000   0.0000
     0.0000   0.0000   0.0000   0.0000   0.0000   0.0000   0.0000   0.0000
     0.0000   0.0000   0.0000   0.0000   0.0000   0.0000   0.0000   0.0000
     0.0000   0.0000   0.0000   0.0000   0.0000   0.0000   0.0000   0.0000
     0.0000   0.0000   0.0000   0.0000   0.0000   0.0000   0.0000   0.0000
     0.0000   0.0000   0.0000   0.0000   0.0000   0.0000   0.0000   0.0000
     0.0000   0.0000   0.0000   0.0000   0.0000   0.0000   0.0000   0.0000
     0.0000   0.0000   0.0000   0.0000   0.0000   0.0000   0.0000   0.0000
     0.0000   0.0000   0.0000   0.0000   0.0000   0.0000   0.0000   0.0000
     0.0000   0.0000   0.0000   0.0000   0.0000   0.0000   0.0000   0.0000
     0.0000   0.0000   0.0000   0.0000   0.0000   0.0000   0.0000   0.0000
     0.0000   0.0000   0.0000   0.0000   0.0000   0.0000   0.0000   0.0000
     0.0000   0.0000   0.0000   0.0000   0.0000   0.0000   0.0000   0.0000
     0.0000   0.0000   0.0000   0.0000   0.0000   0.0000   0.0000   0.0000
     0.0000   0.0000   0.0000   0.0000   0.0000   0.0000   0.0000   0.0000
     0.0000   0.0000   0.0000   0.0000   0.0000   0.0000   0.0000   0.0000
     0.0000   0.0000   0.0000   0.0000   0.0000   0.0000   0.0000   0.0000
     0.0000   0.0000   0.0000   0.0000   0.0000   0.0000   0.0000   0.0000
     0.0000   0.0000   0.0000   0.0000   0.0000   0.0000   0.0000   0.0000
     0.0000   0.0000   0.0000   0.0000   0.0000   0.0000   0.0000   0.0000
     0.0000   0.0000   0.0000   0.0000   0.0000   0.0000   0.0000   0.0000
     0.0000   0.0000   0.0000   0.0000   0.0000   0.0000   0.0000   0.0000
     0.0000   0.0000   0.0000   0.0000   0.0000   0.0000   0.0000   0.0000
     0.0000   0.0000   0.0000   0.0000   0.0000   0.0000   0.0000   0.0000
     0.0000   0.0000   0.0000   0.0000   0.0000   0.0000   0.0000   0.0000
     0.0000   0.0000   0.0000   0.0000   0.0000   0.0000   0.0000   0.0000
     0.0000   0.0000   0.0000   0.0000   0.0000   0.0000   0.0000   0.0000
     0.0000   0.0000   0.0000   0.0000   0.0000   0.0000   0.0000   0.0000
     0.0000   0.0000   0.0000   0.0000

     highest occupied, lowest unoccupied level (ev):    -0.8771   -0.4297

     Writing all to output data dir ./kpoints_60-nbnds_500.save/
 
     init_run     :      0.16s CPU      0.29s WALL (       1 calls)
     electrons    :   2059.09s CPU   2111.84s WALL (       1 calls)

     Called by init_run:
     wfcinit      :      0.00s CPU      0.00s WALL (       1 calls)
                                        0.00s GPU  (       1 calls)
     wfcinit:wfcr :    118.77s CPU    121.12s WALL (     331 calls)
                                      121.12s GPU  (     331 calls)
     potinit      :      0.02s CPU      0.05s WALL (       1 calls)
     hinit0       :      0.02s CPU      0.05s WALL (       1 calls)

     Called by electrons:
     c_bands      :   2059.06s CPU   2111.76s WALL (       1 calls)
     v_of_rho     :      0.02s CPU      0.02s WALL (       1 calls)
     v_h          :      0.01s CPU      0.00s WALL (       1 calls)
     v_xc         :      0.01s CPU      0.01s WALL (       1 calls)

     Called by c_bands:
     init_us_2    :      0.18s CPU      0.22s WALL (     331 calls)
     init_us_2:gp :      0.17s CPU      0.21s WALL (     331 calls)
     cegterg      :   1916.33s CPU   1949.43s WALL (     702 calls)

     Called by sum_band:

     Called by *egterg:
     cdiaghg      :    204.39s CPU    205.50s WALL (   11293 calls)
                                      205.40s GPU  (   11293 calls)
     cegterg:over :     58.13s CPU     64.49s WALL (   10962 calls)
     cegterg:upda :     27.39s CPU     27.48s WALL (   10962 calls)
     cegterg:last :     13.36s CPU     13.40s WALL (    4689 calls)
     h_psi        :   1716.55s CPU   1743.52s WALL (   11995 calls)
                                     1743.36s GPU  (   11995 calls)
     g_psi        :      0.04s CPU      0.69s WALL (   10962 calls)
                                        0.60s GPU  (   10962 calls)

     Called by h_psi:
     h_psi:calbec :     11.19s CPU     11.61s WALL (   11995 calls)
                                       11.52s GPU  (   11995 calls)
     vloc_psi     :   1700.68s CPU   1727.26s WALL (   11995 calls)
                                     1727.16s GPU  (   11995 calls)
     add_vuspsi   :      2.18s CPU      3.59s WALL (   11995 calls)
                                        3.50s GPU  (   11995 calls)

     General routines
     calbec       :     11.04s CPU     11.36s WALL (   11995 calls)
     fft          :      0.00s CPU      0.03s WALL (      13 calls)
                                        0.03s GPU  (      13 calls)
     fftw         :    823.40s CPU    986.39s WALL (10212988 calls)
                                      910.66s GPU  (10212988 calls)
     davcio       :      1.48s CPU     45.48s WALL (     662 calls)
 
     Parallel routines
 
     PWSCF        :  34m53.26s CPU  36m58.68s WALL

 
   This run was terminated on:  18:28:31   7Nov2025            

=------------------------------------------------------------------------------=
   JOB DONE.
=------------------------------------------------------------------------------=
